<?xml version="1.0" encoding="UTF-8"?>
<VTKFile type="UnstructuredGrid" version="0.1" byte_order="LittleEndian" compressor="vtkZLibDataCompressor">
    <UnstructuredGrid>
        <Piece NumberOfPoints="4096" NumberOfCells="1024">
            <Points>
                <DataArray type="Float64" Name="Array" NumberOfComponents="3" format="ascii" RangeMin="0" RangeMax="1">0 0 0 0.03125 0 0 0 0.03125 0 0.03125 0.03125 0 0.03125 0 0 0.0625 0 0 0.03125 0.03125 0 0.0625 0.03125 0 0.03125 0.03125 0 0.0625 0.03125 0 0.03125 0.0625 0 0.0625 0.0625 0 0 0.03125 0 0.03125 0.03125 0 0 0.0625 0 0.03125 0.0625 0 0.0625 0 0 0.09375 0 0 0.0625 0.03125 0 0.09375 0.03125 0 0.09375 0 0 0.125 0 0 0.09375 0.03125 0 0.125 0.03125 0 0.09375 0.03125 0 0.125 0.03125 0 0.09375 0.0625 0 0.125 0.0625 0 0.0625 0.03125 0 0.09375 0.03125 0 0.0625 0.0625 0 0.09375 0.0625 0 0.0625 0.0625 0 0.09375 0.0625 0 0.0625 0.09375 0 0.09375 0.09375 0 0.09375 0.0625 0 0.125 0.0625 0 0.09375 0.09375 0 0.125 0.09375 0 0.09375 0.09375 0 0.125 0.09375 0 0.09375 0.125 0 0.125 0.125 0 0.0625 0.09375 0 0.09375 0.09375 0 0.0625 0.125 0 0.09375 0.125 0 0 0.0625 0 0.03125 0.0625 0 0 0.09375 0 0.03125 0.09375 0 0.03125 0.0625 0 0.0625 0.0625 0 0.03125 0.09375 0 0.0625 0.09375 0 0.03125 0.09375 0 0.0625 0.09375 0 0.03125 0.125 0 0.0625 0.125 0 0 0.09375 0 0.03125 0.09375 0 0 0.125 0 0.03125 0.125 0 0.125 0 0 0.15625 0 0 0.125 0.03125 0 0.15625 0.03125 0 0.15625 0 0 0.1875 0 0 0.15625 0.03125 0 0.1875 0.03125 0 0.15625 0.03125 0 0.1875 0.03125 0 0.15625 0.0625 0 0.1875 0.0625 0 0.125 0.03125 0 0.15625 0.03125 0 0.125 0.0625 0 0.15625 0.0625 0 0.1875 0 0 0.21875 0 0 0.1875 0.03125 0 0.21875 0.03125 0 0.21875 0 0 0.25 0 0 0.21875 0.03125 0 0.25 0.03125 0 0.21875 0.03125 0 0.25 0.03125 0 0.21875 0.0625 0 0.25 0.0625 0 0.1875 0.03125 0 0.21875 0.03125 0 0.1875 0.0625 0 0.21875 0.0625 0 0.1875 0.0625 0 0.21875 0.0625 0 0.1875 0.09375 0 0.21875 0.09375 0 0.21875 0.0625 0 0.25 0.0625 0 0.21875 0.09375 0 0.25 0.09375 0 0.21875 0.09375 0 0.25 0.09375 0 0.21875 0.125 0 0.25 0.125 0 0.1875 0.09375 0 0.21875 0.09375 0 0.1875 0.125 0 0.21875 0.125 0 0.125 0.0625 0 0.15625 0.0625 0 0.125 0.09375 0 0.15625 0.09375 0 0.15625 0.0625 0 0.1875 0.0625 0 0.15625 0.09375 0 0.1875 0.09375 0 0.15625 0.09375 0 0.1875 0.09375 0 0.15625 0.125 0 0.1875 0.125 0 0.125 0.09375 0 0.15625 0.09375 0 0.125 0.125 0 0.15625 0.125 0 0.125 0.125 0 0.15625 0.125 0 0.125 0.15625 0 0.15625 0.15625 0 0.15625 0.125 0 0.1875 0.125 0 0.15625 0.15625 0 0.1875 0.15625 0 0.15625 0.15625 0 0.1875 0.15625 0 0.15625 0.1875 0 0.1875 0.1875 0 0.125 0.15625 0 0.15625 0.15625 0 0.125 0.1875 0 0.15625 0.1875 0 0.1875 0.125 0 0.21875 0.125 0 0.1875 0.15625 0 0.21875 0.15625 0 0.21875 0.125 0 0.25 0.125 0 0.21875 0.15625 0 0.25 0.15625 0 0.21875 0.15625 0 0.25 0.15625 0 0.21875 0.1875 0 0.25 0.1875 0 0.1875 0.15625 0 0.21875 0.15625 0 0.1875 0.1875 0 0.21875 0.1875 0 0.1875 0.1875 0 0.21875 0.1875 0 0.1875 0.21875 0 0.21875 0.21875 0 0.21875 0.1875 0 0.25 0.1875 0 0.21875 0.21875 0 0.25 0.21875 0 0.21875 0.21875 0 0.25 0.21875 0 0.21875 0.25 0 0.25 0.25 0 0.1875 0.21875 0 0.21875 0.21875 0 0.1875 0.25 0 0.21875 0.25 0 0.125 0.1875 0 0.15625 0.1875 0 0.125 0.21875 0 0.15625 0.21875 0 0.15625 0.1875 0 0.1875 0.1875 0 0.15625 0.21875 0 0.1875 0.21875 0 0.15625 0.21875 0 0.1875 0.21875 0 0.15625 0.25 0 0.1875 0.25 0 0.125 0.21875 0 0.15625 0.21875 0 0.125 0.25 0 0.15625 0.25 0 0 0.125 0 0.03125 0.125 0 0 0.15625 0 0.03125 0.15625 0 0.03125 0.125 0 0.0625 0.125 0 0.03125 0.15625 0 0.0625 0.15625 0 0.03125 0.15625 0 0.0625 0.15625 0 0.03125 0.1875 0 0.0625 0.1875 0 0 0.15625 0 0.03125 0.15625 0 0 0.1875 0 0.03125 0.1875 0 0.0625 0.125 0 0.09375 0.125 0 0.0625 0.15625 0 0.09375 0.15625 0 0.09375 0.125 0 0.125 0.125 0 0.09375 0.15625 0 0.125 0.15625 0 0.09375 0.15625 0 0.125 0.15625 0 0.09375 0.1875 0 0.125 0.1875 0 0.0625 0.15625 0 0.09375 0.15625 0 0.0625 0.1875 0 0.09375 0.1875 0 0.0625 0.1875 0 0.09375 0.1875 0 0.0625 0.21875 0 0.09375 0.21875 0 0.09375 0.1875 0 0.125 0.1875 0 0.09375 0.21875 0 0.125 0.21875 0 0.09375 0.21875 0 0.125 0.21875 0 0.09375 0.25 0 0.125 0.25 0 0.0625 0.21875 0 0.09375 0.21875 0 0.0625 0.25 0 0.09375 0.25 0 0 0.1875 0 0.03125 0.1875 0 0 0.21875 0 0.03125 0.21875 0 0.03125 0.1875 0 0.0625 0.1875 0 0.03125 0.21875 0 0.0625 0.21875 0 0.03125 0.21875 0 0.0625 0.21875 0 0.03125 0.25 0 0.0625 0.25 0 0 0.21875 0 0.03125 0.21875 0 0 0.25 0 0.03125 0.25 0 0.25 0 0 0.28125 0 0 0.25 0.03125 0 0.28125 0.03125 0 0.28125 0 0 0.3125 0 0 0.28125 0.03125 0 0.3125 0.03125 0 0.28125 0.03125 0 0.3125 0.03125 0 0.28125 0.0625 0 0.3125 0.0625 0 0.25 0.03125 0 0.28125 0.03125 0 0.25 0.0625 0 0.28125 0.0625 0 0.3125 0 0 0.34375 0 0 0.3125 0.03125 0 0.34375 0.03125 0 0.34375 0 0 0.375 0 0 0.34375 0.03125 0 0.375 0.03125 0 0.34375 0.03125 0 0.375 0.03125 0 0.34375 0.0625 0 0.375 0.0625 0 0.3125 0.03125 0 0.34375 0.03125 0 0.3125 0.0625 0 0.34375 0.0625 0 0.3125 0.0625 0 0.34375 0.0625 0 0.3125 0.09375 0 0.34375 0.09375 0 0.34375 0.0625 0 0.375 0.0625 0 0.34375 0.09375 0 0.375 0.09375 0 0.34375 0.09375 0 0.375 0.09375 0 0.34375 0.125 0 0.375 0.125 0 0.3125 0.09375 0 0.34375 0.09375 0 0.3125 0.125 0 0.34375 0.125 0 0.25 0.0625 0 0.28125 0.0625 0 0.25 0.09375 0 0.28125 0.09375 0 0.28125 0.0625 0 0.3125 0.0625 0 0.28125 0.09375 0 0.3125 0.09375 0 0.28125 0.09375 0 0.3125 0.09375 0 0.28125 0.125 0 0.3125 0.125 0 0.25 0.09375 0 0.28125 0.09375 0 0.25 0.125 0 0.28125 0.125 0 0.375 0 0 0.40625 0 0 0.375 0.03125 0 0.40625 0.03125 0 0.40625 0 0 0.4375 0 0 0.40625 0.03125 0 0.4375 0.03125 0 0.40625 0.03125 0 0.4375 0.03125 0 0.40625 0.0625 0 0.4375 0.0625 0 0.375 0.03125 0 0.40625 0.03125 0 0.375 0.0625 0 0.40625 0.0625 0 0.4375 0 0 0.46875 0 0 0.4375 0.03125 0 0.46875 0.03125 0 0.46875 0 0 0.5 0 0 0.46875 0.03125 0 0.5 0.03125 0 0.46875 0.03125 0 0.5 0.03125 0 0.46875 0.0625 0 0.5 0.0625 0 0.4375 0.03125 0 0.46875 0.03125 0 0.4375 0.0625 0 0.46875 0.0625 0 0.4375 0.0625 0 0.46875 0.0625 0 0.4375 0.09375 0 0.46875 0.09375 0 0.46875 0.0625 0 0.5 0.0625 0 0.46875 0.09375 0 0.5 0.09375 0 0.46875 0.09375 0 0.5 0.09375 0 0.46875 0.125 0 0.5 0.125 0 0.4375 0.09375 0 0.46875 0.09375 0 0.4375 0.125 0 0.46875 0.125 0 0.375 0.0625 0 0.40625 0.0625 0 0.375 0.09375 0 0.40625 0.09375 0 0.40625 0.0625 0 0.4375 0.0625 0 0.40625 0.09375 0 0.4375 0.09375 0 0.40625 0.09375 0 0.4375 0.09375 0 0.40625 0.125 0 0.4375 0.125 0 0.375 0.09375 0 0.40625 0.09375 0 0.375 0.125 0 0.40625 0.125 0 0.375 0.125 0 0.40625 0.125 0 0.375 0.15625 0 0.40625 0.15625 0 0.40625 0.125 0 0.4375 0.125 0 0.40625 0.15625 0 0.4375 0.15625 0 0.40625 0.15625 0 0.4375 0.15625 0 0.40625 0.1875 0 0.4375 0.1875 0 0.375 0.15625 0 0.40625 0.15625 0 0.375 0.1875 0 0.40625 0.1875 0 0.4375 0.125 0 0.46875 0.125 0 0.4375 0.15625 0 0.46875 0.15625 0 0.46875 0.125 0 0.5 0.125 0 0.46875 0.15625 0 0.5 0.15625 0 0.46875 0.15625 0 0.5 0.15625 0 0.46875 0.1875 0 0.5 0.1875 0 0.4375 0.15625 0 0.46875 0.15625 0 0.4375 0.1875 0 0.46875 0.1875 0 0.4375 0.1875 0 0.46875 0.1875 0 0.4375 0.21875 0 0.46875 0.21875 0 0.46875 0.1875 0 0.5 0.1875 0 0.46875 0.21875 0 0.5 0.21875 0 0.46875 0.21875 0 0.5 0.21875 0 0.46875 0.25 0 0.5 0.25 0 0.4375 0.21875 0 0.46875 0.21875 0 0.4375 0.25 0 0.46875 0.25 0 0.375 0.1875 0 0.40625 0.1875 0 0.375 0.21875 0 0.40625 0.21875 0 0.40625 0.1875 0 0.4375 0.1875 0 0.40625 0.21875 0 0.4375 0.21875 0 0.40625 0.21875 0 0.4375 0.21875 0 0.40625 0.25 0 0.4375 0.25 0 0.375 0.21875 0 0.40625 0.21875 0 0.375 0.25 0 0.40625 0.25 0 0.25 0.125 0 0.28125 0.125 0 0.25 0.15625 0 0.28125 0.15625 0 0.28125 0.125 0 0.3125 0.125 0 0.28125 0.15625 0 0.3125 0.15625 0 0.28125 0.15625 0 0.3125 0.15625 0 0.28125 0.1875 0 0.3125 0.1875 0 0.25 0.15625 0 0.28125 0.15625 0 0.25 0.1875 0 0.28125 0.1875 0 0.3125 0.125 0 0.34375 0.125 0 0.3125 0.15625 0 0.34375 0.15625 0 0.34375 0.125 0 0.375 0.125 0 0.34375 0.15625 0 0.375 0.15625 0 0.34375 0.15625 0 0.375 0.15625 0 0.34375 0.1875 0 0.375 0.1875 0 0.3125 0.15625 0 0.34375 0.15625 0 0.3125 0.1875 0 0.34375 0.1875 0 0.3125 0.1875 0 0.34375 0.1875 0 0.3125 0.21875 0 0.34375 0.21875 0 0.34375 0.1875 0 0.375 0.1875 0 0.34375 0.21875 0 0.375 0.21875 0 0.34375 0.21875 0 0.375 0.21875 0 0.34375 0.25 0 0.375 0.25 0 0.3125 0.21875 0 0.34375 0.21875 0 0.3125 0.25 0 0.34375 0.25 0 0.25 0.1875 0 0.28125 0.1875 0 0.25 0.21875 0 0.28125 0.21875 0 0.28125 0.1875 0 0.3125 0.1875 0 0.28125 0.21875 0 0.3125 0.21875 0 0.28125 0.21875 0 0.3125 0.21875 0 0.28125 0.25 0 0.3125 0.25 0 0.25 0.21875 0 0.28125 0.21875 0 0.25 0.25 0 0.28125 0.25 0 0.25 0.25 0 0.28125 0.25 0 0.25 0.28125 0 0.28125 0.28125 0 0.28125 0.25 0 0.3125 0.25 0 0.28125 0.28125 0 0.3125 0.28125 0 0.28125 0.28125 0 0.3125 0.28125 0 0.28125 0.3125 0 0.3125 0.3125 0 0.25 0.28125 0 0.28125 0.28125 0 0.25 0.3125 0 0.28125 0.3125 0 0.3125 0.25 0 0.34375 0.25 0 0.3125 0.28125 0 0.34375 0.28125 0 0.34375 0.25 0 0.375 0.25 0 0.34375 0.28125 0 0.375 0.28125 0 0.34375 0.28125 0 0.375 0.28125 0 0.34375 0.3125 0 0.375 0.3125 0 0.3125 0.28125 0 0.34375 0.28125 0 0.3125 0.3125 0 0.34375 0.3125 0 0.3125 0.3125 0 0.34375 0.3125 0 0.3125 0.34375 0 0.34375 0.34375 0 0.34375 0.3125 0 0.375 0.3125 0 0.34375 0.34375 0 0.375 0.34375 0 0.34375 0.34375 0 0.375 0.34375 0 0.34375 0.375 0 0.375 0.375 0 0.3125 0.34375 0 0.34375 0.34375 0 0.3125 0.375 0 0.34375 0.375 0 0.25 0.3125 0 0.28125 0.3125 0 0.25 0.34375 0 0.28125 0.34375 0 0.28125 0.3125 0 0.3125 0.3125 0 0.28125 0.34375 0 0.3125 0.34375 0 0.28125 0.34375 0 0.3125 0.34375 0 0.28125 0.375 0 0.3125 0.375 0 0.25 0.34375 0 0.28125 0.34375 0 0.25 0.375 0 0.28125 0.375 0 0.375 0.25 0 0.40625 0.25 0 0.375 0.28125 0 0.40625 0.28125 0 0.40625 0.25 0 0.4375 0.25 0 0.40625 0.28125 0 0.4375 0.28125 0 0.40625 0.28125 0 0.4375 0.28125 0 0.40625 0.3125 0 0.4375 0.3125 0 0.375 0.28125 0 0.40625 0.28125 0 0.375 0.3125 0 0.40625 0.3125 0 0.4375 0.25 0 0.46875 0.25 0 0.4375 0.28125 0 0.46875 0.28125 0 0.46875 0.25 0 0.5 0.25 0 0.46875 0.28125 0 0.5 0.28125 0 0.46875 0.28125 0 0.5 0.28125 0 0.46875 0.3125 0
[...]
            <PointData>
                <DataArray Name="u" type="Float64" format="ascii">1.98079 1.99518 1.92388 1.93944 1.99518 1.98079 1.93944 1.94386 1.93944 1.94386 1.87904 1.89726 1.92388 1.93944 1.83147 1.87904 1.98079 1.95694 1.94386 1.92886 1.95694 1.92388 1.92886 1.90275 1.92886 1.90275 1.8952 1.87712 1.94386 1.92886 1.89726 1.8952 1.89726 1.8952 1.8428 1.85452 1.8952 1.87712 1.85452 1.84655 1.85452 1.84655 1.8066 1.81029 1.8428 1.85452 1.77842 1.8066 1.83147 1.87904 1.70711 1.80395 1.87904 1.89726 1.80395 1.8428 1.80395 1.8428 1.71001 1.77842 1.70711 1.80395 1.55557 1.71001 1.92388 1.88192 1.90275 1.86649 1.88192 1.83147 1.86649 1.82098 1.86649 1.82098 1.84731 1.80718 1.90275 1.86649 1.87712 1.84731 1.83147 1.77301 1.82098 1.76694 1.77301 1.70711 1.76694 1.70507 1.76694 1.70507 1.75786 1.70024 1.82098 1.76694 1.80718 1.75786 1.80718 1.75786 1.78983 1.74558 1.75786 1.70024 1.74558 1.69246 1.74558 1.69246 1.72992 1.68156 1.78983 1.74558 1.76866 1.72992 1.87712 1.84731 1.84655 1.82401 1.84731 1.80718 1.82401 1.78983 1.82401 1.78983 1.79625 1.76866 1.84655 1.82401 1.81029 1.79625 1.81029 1.79625 1.76786 1.76358 1.79625 1.76866 1.76358 1.74339 1.76358 1.74339 1.72556 1.71368 1.76786 1.76358 1.71874 1.72556 1.76866 1.72992 1.74339 1.71063 1.72992 1.68156 1.71063 1.66738 1.71063 1.66738 1.68749 1.64972 1.74339 1.71063 1.71368 1.68749 1.71368 1.68749 1.67923 1.66025 1.68749 1.64972 1.66025 1.62838 1.66025 1.62838 1.62865 1.60316 1.67923 1.66025 1.63971 1.62865 1.71874 1.72556 1.66239 1.68182 1.72556 1.71368 1.68182 1.67923 1.68182 1.67923 1.63196 1.63971 1.66239 1.68182 1.59827 1.63196 1.55557 1.71001 1.38268 1.59665 1.71001 1.77842 1.59665 1.70186 1.59665 1.70186 1.46556 1.61186 1.38268 1.59665 1.19509 1.46556 1.77842 1.8066 1.70186 1.7507 1.8066 1.81029 1.7507 1.76786 1.7507 1.76786 1.68579 1.71874 1.70186 1.7507 1.61186 1.68579 1.61186 1.68579 1.50841 1.61102 1.68579 1.71874 1.61102 1.66239 1.61102 1.66239 1.52603 1.59827 1.50841 1.61102 1.39273 1.52603 1.19509 1.46556 1 1.32002 1.46556 1.61186 1.32002 1.50841 1.32002 1.50841 1.16436 1.39273 1 1.32002 0.80491 1.16436 1.70711 1.63439 1.70507 1.63609 1.63439 1.55557 1.63609 1.56073 1.63609 1.56073 1.63514 1.56338 1.70507 1.63609 1.70024 1.63514 1.55557 1.4714 1.56073 1.47976 1.4714 1.38268 1.47976 1.39401 1.47976 1.39401 1.48574 1.40305 1.56073 1.47976 1.56338 1.48574 1.56338 1.48574 1.5634 1.48921 1.48574 1.40305 1.48921 1.4097 1.48921 1.4097 1.49005 1.41384 1.5634 1.48921 1.56067 1.49005 1.70024 1.63514 1.69246 1.63143 1.63514 1.56338 1.63143 1.5634 1.63143 1.5634 1.62481 1.56067 1.69246 1.63143 1.68156 1.62481 1.38268 1.29028 1.39401 1.3043 1.29028 1.19509 1.3043 1.21152 1.3043 1.21152 1.31614 1.22589 1.39401 1.3043 1.40305 1.31614 1.19509 1.09802 1.21152 1.11656 1.09802 1 1.11656 1.02034 1.11656 1.02034 1.13318 1.03891 1.21152 1.11656 1.22589 1.13318 1.22589 1.13318 1.23812 1.14778 1.13318 1.03891 1.14778 1.05559 1.14778 1.05559 1.16024 1.07027 1.23812 1.14778 1.24808 1.16024 1.40305 1.31614 1.4097 1.32571 1.31614 1.22589 1.32571 1.23812 1.32571 1.23812 1.3329 1.24808 1.4097 1.32571 1.41384 1.3329 1.41384 1.3329 1.41536 1.33757 1.3329 1.24808 1.33757 1.25565 1.33757 1.25565 1.33962 1.26071 1.41536 1.33757 1.41413 1.33962 1.24808 1.16024 1.25565 1.17045 1.16024 1.07027 1.17045 1.08283 1.17045 1.08283 1.17827 1.09314 1.25565 1.17045 1.26071 1.17827 1.26071 1.17827 1.26313 1.18357 1.17827 1.09314 1.18357 1.10106 1.18357 1.10106 1.18622 1.10647 1.26313 1.18357 1.26278 1.18622 1.41413 1.33962 1.41001 1.3389 1.33962 1.26071 1.3389 1.26313 1.3389 1.26313 1.33529 1.26278 1.41001 1.3389 1.40287 1.33529 1.68156 1.62481 1.66738 1.61513 1.62481 1.56067 1.61513 1.55505 1.61513 1.55505 1.60223 1.5464 1.66738 1.61513 1.64972 1.60223 1.56067 1.49005 1.55505 1.48815 1.49005 1.41384 1.48815 1.41536 1.48815 1.41536 1.48336 1.41413 1.55505 1.48815 1.5464 1.48336 1.5464 1.48336 1.53456 1.47556 1.48336 1.41413 1.47556 1.41001 1.47556 1.41001 1.46459 1.40287 1.53456 1.47556 1.51939 1.46459 1.64972 1.60223 1.62838 1.58594 1.60223 1.5464 1.58594 1.53456 1.58594 1.53456 1.56608 1.51939 1.62838 1.58594 1.60316 1.56608 1.60316 1.56608 1.57385 1.54248 1.56608 1.51939 1.54248 1.50072 1.54248 1.50072 1.51496 1.47839 1.57385 1.54248 1.54024 1.51496 1.51939 1.46459 1.50072 1.4503 1.46459 1.40287 1.4503 1.39256 1.4503 1.39256 1.43254 1.37893 1.50072 1.4503 1.47839 1.43254 1.47839 1.43254 1.45221 1.41114 1.43254 1.37893 1.41114 1.36181 1.41114 1.36181 1.38594 1.34106 1.45221 1.41114 1.42204 1.38594 1.54024 1.51496 1.50214 1.48332 1.51496 1.47839 1.48332 1.45221 1.48332 1.45221 1.44741 1.42204 1.50214 1.48332 1.45938 1.44741 1.40287 1.33529 1.39256 1.32863 1.33529 1.26278 1.32863 1.2595 1.32863 1.2595 1.31878 1.25316 1.39256 1.32863 1.37893 1.31878 1.26278 1.18622 1.2595 1.18608 1.18622 1.10647 1.18608 1.10922 1.18608 1.10922 1.18299 1.10914 1.2595 1.18608 1.25316 1.18299 1.25316 1.18299 1.24359 1.1768 1.18299 1.10914 1.1768 1.1061 1.1768 1.1061 1.16734 1.09991 1.24359 1.1768 1.23064 1.16734 1.37893 1.31878 1.36181 1.30559 1.31878 1.25316 1.30559 1.24359 1.30559 1.24359 1.28888 1.23064 1.36181 1.30559 1.34106 1.28888 1.34106 1.28888 1.3165 1.26851 1.28888 1.23064 1.26851 1.21413 1.26851 1.21413 1.24429 1.19389 1.3165 1.26851 1.28797 1.24429 1.23064 1.16734 1.21413 1.15444 1.16734 1.09991 1.15444 1.0904 1.15444 1.0904 1.13793 1.0774 1.21413 1.15444 1.19389 1.13793 1.19389 1.13793 1.16975 1.11762 1.13793 1.0774 1.11762 1.06071 1.11762 1.06071 1.09333 1.04013 1.16975 1.11762 1.14152 1.09333 1.28797 1.24429 1.25531 1.21606 1.24429 1.19389 1.21606 1.16975 1.21606 1.16975 1.18365 1.14152 1.25531 1.21606 1.21837 1.18365 1.45938 1.44741 1.41183 1.40706 1.44741 1.42204 1.40706 1.3877 1.40706 1.3877 1.36216 1.34906 1.41183 1.40706 1.35939 1.36216 1.42204 1.38594 1.3877 1.35678 1.38594 1.34106 1.35678 1.3165 1.35678 1.3165 1.32351 1.28797 1.3877 1.35678 1.34906 1.32351 1.34906 1.32351 1.30597 1.28596 1.32351 1.28797 1.28596 1.25531 1.28596 1.25531 1.24401 1.21837 1.30597 1.28596 1.25834 1.24401 1.35939 1.36216 1.30205 1.3126 1.36216 1.34906 1.3126 1.30597 1.3126 1.30597 1.25834 1.25834 1.30205 1.3126 1.23988 1.25834 0.80491 1.16436 0.617317 1.00357 1.16436 1.39273 1.00357 1.26705 1.00357 1.26705 0.84304 1.13436 0.617317 1.00357 0.44443 0.84304 1.39273 1.52603 1.26705 1.43117 1.52603 1.59827 1.43117 1.52609 1.43117 1.52609 1.32744 1.44586 1.26705 1.43117 1.13436 1.32744 1.13436 1.32744 0.998213 1.21653 1.32744 1.44586 1.21653 1.35803 1.21653 1.35803 1.10062 1.26351 0.998213 1.21653 0.862432 1.10062 0.44443 0.84304 0.292893 0.688179 0.84304 1.13436 0.688179 0.998213 0.688179 0.998213 0.544194 0.862432 0.292893 0.688179 0.16853 0.544194 1.59827 1.63196 1.52609 1.57565 1.63196 1.63971 1.57565 1.59484 1.57565 1.59484 1.51266 1.54438 1.52609 1.57565 1.44586 1.51266 1.63971 1.62865 1.59484 1.59246 1.62865 1.60316 1.59246 1.57385 1.59246 1.57385 1.55143 1.54024 1.59484 1.59246 1.54438 1.55143 1.54438 1.55143 1.48814 1.50538 1.55143 1.54024 1.50538 1.50214 1.50538 1.50214 1.45414 1.45938 1.48814 1.50538 1.42605 1.45414 1.44586 1.51266 1.35803 1.44292 1.51266 1.54438 1.44292 1.48814 1.44292 1.48814 1.36663 1.42605 1.35803 1.44292 1.26351 1.36663 1.26351 1.36663 1.16359 1.28427 1.36663 1.42605 1.28427 1.35818 1.28427 1.35818 1.19661 1.28478 1.16359 1.28427 1.05992 1.19661 1.42605 1.45414 1.35818 1.39764 1.45414 1.45938 1.39764 1.41183 1.39764 1.41183 1.3359 1.35939 1.35818 1.39764 1.28478 1.3359 1.28478 1.3359 1.20631 1.26904 1.3359 1.35939 1.26904 1.30205 1.26904 1.30205 1.19734 1.23988 1.20631 1.26904 1.12345 1.19734 1.05992 1.19661 0.954423 1.10469 1.19661 1.28478 1.10469 1.20631 1.10469 1.20631 1.00979 1.12345 0.954423 1.10469 0.849133 1.00979 0.16853 0.544194 0.0761205 0.415781 0.544194 0.862432 0.415781 0.730911 0.415781 0.730911 0.306838 0.607358 0.0761205 0.415781 0.0192147 0.306838 0.862432 1.10062 0.730911 0.98228 1.10062 1.26351 0.98228 1.16359 0.98228 1.16359 0.864274 1.05992 0.730911 0.98228 0.607358 0.864274 0.607358 0.864274 0.495063 0.749414 0.864274 1.05992 0.749414 0.954423 0.749414 0.954423 0.640364 0.849133 0.495063 0.749414 0.396577 0.640364 0.0192147 0.306838 0 0.220136 0.306838 0.607358 0.220136 0.495063 0.220136 0.495063 0.158092 0.396577 0 0.220136 0 0.158092 1 0.901983 1.02034 0.923783 0.901983 0.80491 0.923783 0.827809 0.923783 0.827809 0.943964 0.849256 1.02034 0.923783 1.03891 0.943964 0.80491 0.709715 0.827809 0.73333 0.709715 0.617317 0.73333 0.641241 0.73333 0.641241 0.755671 0.664083 0.827809 0.73333 0.849256 0.755671 0.849256 0.755671 0.869135 0.776625 0.755671 0.664083 0.776625 0.685728 0.776625 0.685728 0.796069 0.706054 0.869135 0.776625 0.887329 0.796069 1.03891 0.943964 1.05559 0.962412 0.943964 0.849256 0.962412 0.869135 0.962412 0.869135 0.979009 0.887329 1.05559 0.962412 1.07027 0.979009 0.617317 0.528603 0.641241 0.552414 0.528603 0.44443 0.552414 0.467692 0.552414 0.467692 0.575341 0.490272 0.641241 0.552414 0.664083 0.575341 0.44443 0.365607 0.467692 0.387884 0.365607 0.292893 0.387884 0.313759 0.387884 0.313759 0.409675 0.334322 0.467692 0.387884 0.490272 0.409675 0.490272 0.409675 0.51206 0.430878 0.409675 0.334322 0.430878 0.354493 0.430878 0.354493 0.451387 0.374174 0.51206 0.430878 0.532942 0.451387 0.664083 0.575341 0.685728 0.597271 0.575341 0.490272 0.597271 0.51206 0.597271 0.51206 0.618086 0.532942 0.685728 0.597271 0.706054 0.618086 0.706054 0.618086 0.724937 0.637661 0.618086 0.532942 0.637661 0.552799 0.637661 0.552799 0.655864 0.571503 0.724937 0.637661 0.742244 0.655864 0.532942 0.451387 0.552799 0.471089 0.451387 0.374174 0.471089 0.39326 0.471089 0.39326 0.489862 0.411643 0.552799 0.471089 0.571503 0.489862 0.571503 0.489862 0.588917 0.507577 0.489862 0.411643 0.507577 0.429202 0.507577 0.429202 0.524097 0.44581 0.588917 0.507577 0.604899 0.524097 0.742244 0.655864 0.757835 0.672558 0.655864 0.571503 0.672558 0.588917 0.672558 0.588917 0.687596 0.604899 0.757835 0.672558 0.771563 0.687596 1.07027 0.979009 1.08283 0.993634 0.979009 0.887329 0.993634 0.903711 0.993634 0.903711 1.00616 0.918151 1.08283 0.993634 1.09314 1.00616 0.887329 0.796069 0.903711 0.813879 0.796069 0.706054 0.813879 0.724937 0.813879 0.724937 0.829921 0.742244 0.903711 0.813879 0.918151 0.829921 0.918151 0.829921 0.930513 0.844059 0.829921 0.742244 0.844059 0.757835 0.844059 0.757835 0.856147 0.771563 0.930513 0.844059 0.940654 0.856147 1.09314 1.00616 1.10106 1.01644 1.00616 0.918151 1.01644 0.930513 1.01644 0.930513 1.02435 0.940654 1.10106 1.01644 1.10647 1.02435 0.292893 0.22699 0.313759 0.246041 0.22699 0.16853 0.246041 0.185404 0.246041 0.185404 0.264956 0.20228 0.313759 0.246041 0.334322 0.264956 0.16853 0.118079 0.185404 0.132463 0.118079 0.0761205 0.132463 0.0877701 0.132463 0.0877701 0.146958 0.0995994 0.185404 0.132463 0.20228 0.146958 0.20228 0.146958 0.219091 0.161505 0.146958 0.0995994 0.161505 0.111563 0.161505 0.111563 0.176045 0.123614 0.219091 0.161505 0.235763 0.176045 0.334322 0.264956 0.354493 0.283654 0.264956 0.20228 0.283654 0.219091 0.283654 0.219091 0.302051 0.235763 0.354493 0.283654 0.374174 0.302051 0.0761205 0.0430597 0.0877701 0.0518054 0.0430597 0.0192147 0.0518054 0.0249778 0.0518054 0.0249778 0.0607599 0.0309333 0.0877701 0.0518054 0.0995994 0.0607599 0.0192147 0.00481527 0.0249778 0.00762166 0.00481527 0 0.00762166 0 0.00762166 0 0.0105536 0 0.0249778 0.00762166 0.0309333 0.0105536 0.0309333 0.0105536 0.0370579 0.0135989 0.0105536 0 0.0135989 0 0.0135989 0 0.016745 0 0.0370579 0.0135989 0.0433277 0.016745 0.0995994 0.0607599 0.111563 0.0698888 0.0607599 0.0309333 0.0698888 0.0370579 0.0698888 0.0370579 0.0791567 0.0433277 0.111563 0.0698888 0.123614 0.0791567 0.123614 0.0791567 0.135701 0.0885267 0.0791567 0.0433277 0.0885267 0.0497181 0.0885267 0.0497181 0.0979601 0.0562036 0.135701 0.0885267 0.147772 0.0979601 0.0433277 0.016745 0.0497181 0.0199795 0.016745 0 0.0199795 0 0.0199795 0 0.0232895 0 0.0497181 0.0199795 0.0562036 0.0232895 0.0562036 0.0232895 0.0627577 0.0266619 0.0232895 0 0.0266619 0 0.0266619 0 0.0300829 0 0.0627577 0.0266619 0.0693525 0.0300829 0.147772 0.0979601 0.159772 0.107416 0.0979601 0.0562036 0.107416 0.0627577 0.107416 0.0627577 0.116851 0.0693525 0.159772 0.107416 0.17164 0.116851 0.374174 0.302051 0.39326 0.320053 0.302051 0.235763 0.320053 0.252218 0.320053 0.252218 0.337565 0.268373 0.39326 0.320053 0.411643 0.337565 0.235763 0.176045 0.252218 0.190514 0.176045 0.123614 0.190514 0.135701 0.190514 0.135701 0.204844 0.147772 0.252218 0.190514 0.268373 0.204844 0.268373 0.204844 0.28414 0.218964 0.204844 0.147772 0.218964 0.159772 0.218964 0.159772 0.232794 0.17164 0.28414 0.218964 0.299422 0.232794 0.411643 0.337565 0.429202 0.35448 0.337565 0.268373 0.35448 0.28414 0.35448 0.28414 0.370685 0.299422 0.429202 0.35448 0.44581 0.370685 0.44581 0.370685 0.46133 0.386057 0.370685 0.299422 0.386057 0.314114 0.386057 0.314114 0.400462 0.328101 0.46133 0.386057 0.475611 0.400462 0.299422 0.232794 0.314114 0.24625 0.232794 0.17164 0.24625 0.18331 0.24625 0.18331 0.259239 0.194713 0.314114 0.24625 0.328101 0.259239 0.328101 0.259239 0.341255 0.271658 0.259239 0.194713 0.271658 0.205771 0.271658 0.205771 0.283393 0.216397 0.341255 0.271658 0.353436 0.283393 0.475611 0.400462 0.488492 0.41375 0.400462 0.328101 0.41375 0.341255 0.41375 0.341255 0.425761 0.353436 0.488492 0.41375 0.499796 0.425761 0.17164 0.116851 0.18331 0.12622 0.116851 0.0693525 0.12622 0.0759584 0.12622 0.0759584 0.135472 0.082544 0.18331 0.12622 0.194713 0.135472 0.0693525 0.0300829 0.0759584 0.0335383 0.0300829 0 0.0335383 0 0.0335383 0 0.037013 0 0.0759584 0.0335383 0.082544 0.037013 0.082544 0.037013 0.0890754 0.040491 0.037013 0 0.040491 0 0.040491 0 0.0439554 0 0.0890754 0.040491 0.095516 0.0439554 0.194713 0.135472 0.205771 0.144552 0.135472 0.082544 0.144552 0.0890754 0.144552 0.0890754 0.153401 0.095516 0.205771 0.144552 0.216397 0.153401 0.216397 0.153401 0.226495 0.161953 0.153401 0.095516 0.161953 0.101826 0.161953 0.101826 0.170132 0.107959 0.226495 0.161953 0.235954 0.170132 0.095516 0.0439554 0.101826 0.0473876 0.0439554 0 0.0473876 0 0.0473876 0 0.0507677 0 0.101826 0.0473876 0.107959 0.0507677 0.107959 0.0507677 0.113867 0.0540735 0.0507677 0 0.0540735 0 0.0540735 0 0.0572804 0 0.113867 0.0540735 0.119492 0.0572804 0.235954 0.170132 0.244651 0.177854 0.170132 0.107959 0.177854 0.113867 0.177854 0.113867 0.185021 0.119492 0.244651 0.177854 0.25244 0.185021 0.499796 0.425761 0.509335 0.436317 0.425761 0.353436 0.436317 0.364486 0.436317 0.364486 0.445222 0.374231 0.509335 0.436317 0.516904 0.445222 0.353436 0.283393 0.364486 0.294316 0.283393 0.216397 0.294316 0.226495 0.294316 0.226495 0.30428 0.235954 0.364486 0.294316 0.374231 0.30428 0.374231 0.30428 0.382476 0.313123 0.30428 0.235954 0.313123 0.244651 0.313123 0.244651 0.320656 0.25244 0.382476 0.313123 0.389001 0.320656 0.516904 0.445222 0.522284 0.452262 0.445222 0.374231 0.452262 0.382476 0.452262 0.382476 0.457205 0.389001 0.522284 0.452262 0.525239 0.457205 1.10647 1.02435 1.10922 1.02974 1.02435 0.940654 1.02974 0.948425 1.02974 0.948425 1.03244 0.953669 1.10922 1.02974 1.10914 1.03244 0.940654 0.856147 0.948425 0.866033 0.856147 0.771563 0.866033 0.783277 0.866033 0.783277 0.873559 0.792813 0.948425 0.866033 0.953669 0.873559 0.953669 0.873559 0.956222 0.878558 0.873559 0.792813 0.878558 0.800003 0.878558 0.800003 0.880855 0.80467 0.956222 0.878558 0.955913 0.880855 1.10914 1.03244 1.1061 1.03231 1.03244 0.953669 1.03231 0.956222 1.03231 0.956222 1.02917 0.955913 1.1061 1.03231 1.09991 1.02917 0.771563 0.687596 0.783277 0.700824 0.687596 0.604899 0.700824 0.619295 0.700824 0.619295 0.712077 0.631942 0.783277 0.700824 0.792813 0.712077 0.604899 0.524097 0.619295 0.539274 0.524097 0.44581 0.539274 0.46133 0.539274 0.46133 0.552948 0.475611 0.619295 0.539274 0.631942 0.552948 0.631942 0.552948 0.642669 0.564951 0.552948 0.475611 0.564951 0.488492 0.564951 0.488492 0.575101 0.499796 0.642669 0.564951 0.651292 0.575101 0.792813 0.712077 0.800003 0.721186 0.712077 0.631942 0.721186 0.642669 0.721186 0.642669 0.727969 0.651292 0.800003 0.721186 0.80467 0.727969 0.80467 0.727969 0.806627 0.732238 0.727969 0.651292 0.732238 0.65762 0.732238 0.65762 0.733794 0.66145 0.806627 0.732238 0.80568 0.733794 0.651292 0.575101 0.65762 0.583204 0.575101 0.499796 0.583204 0.509335 0.583204 0.509335 0.589054 0.516904 0.65762 0.583204 0.66145 0.589054 0.66145 0.589054 0.66257 0.592435 0.589054 0.516904 0.592435 0.522284 0.592435 0.522284 0.593116 0.525239 0.66257 0.592435 0.660754 0.593116 0.80568 0.733794 0.801624 0.732428 0.733794 0.66145 0.732428 0.66257 0.732428 0.66257 0.727921 0.660754 0.801624 0.732428 0.794245 0.727921 1.09991 1.02917 1.0904 1.02285 1.02917 0.955913 1.02285 0.952562 1.02285 0.952562 1.01315 0.945981 1.0904 1.02285 1.0774 1.01315 0.955913 0.880855 0.952562 0.880268 0.880855 0.80467 0.880268 0.806627 0.880268 0.806627 0.876605 0.80568 0.952562 0.880268 0.945981 0.876605 0.945981 0.876605 0.935972 0.869666 0.876605 0.80568 0.869666 0.801624 0.869666 0.801624 0.859239 0.794245 0.935972 0.869666 0.922329 0.859239 1.0774 1.01315 1.06071 0.999892 1.01315 0.945981 0.999892 0.935972 0.999892 0.935972 0.982867 0.922329 1.06071 0.999892 1.04013 0.982867 1.04013 0.982867 1.01547 0.961865 0.982867 0.922329 0.961865 0.904834 0.961865 0.904834 0.936667 0.883261 1.01547 0.961865 0.986516 0.936667 0.922329 0.859239 0.904834 0.845103 0.859239 0.794245 0.845103 0.783318 0.845103 0.783318 0.827027 0.768606 0.904834 0.845103 0.883261 0.827027 0.883261 0.827027 0.857374 0.804768 0.827027 0.768606 0.804768 0.749863 0.804768 0.749863 0.778069 0.726826 0.857374 0.804768 0.826923 0.778069 0.986516 0.936667 0.95304 0.907041 0.936667 0.883261 0.907041 0.857374 0.907041 0.857374 0.872752 0.826923 0.95304 0.907041 0.914821 0.872752 0.794245 0.727921 0.783318 0.720047 0.727921 0.660754 0.720047 0.655771 0.720047 0.655771 0.708563 0.647375 0.783318 0.720047 0.768606 0.708563 0.660754 0.593116 0.655771 0.590858 0.593116 0.525239 0.590858 0.525522 0.590858 0.525522 0.585407 0.52287 0.655771 0.590858 0.647375 0.585407 0.647375 0.585407 0.63531 0.576502 0.585407 0.52287 0.576502 0.51701 0.576502 0.51701 0.563867 0.507657 0.63531 0.576502 0.619306 0.563867 0.768606 0.708563 0.749863 0.693219 0.708563 0.647375 0.693219 0.63531 0.693219 0.63531 0.673749 0.619306 0.749863 0.693219 0.726826 0.673749 0.726826 0.673749 0.699223 0.649874 0.673749 0.619306 0.649874 0.599083 0.649874 0.599083 0.621302 0.574342 0.699223 0.649874 0.666764 0.621302 0.619306 0.563867 0.599083 0.547216 0.563867 0.507657 0.547216 0.494514 0.547216 0.494514 0.526249 0.477274 0.599083 0.547216 0.574342 0.526249 0.574342 0.526249 0.54477 0.500649 0.526249 0.477274 0.500649 0.455617 0.500649 0.455617 0.470083 0.429208 0.54477 0.500649 0.510038 0.470083 0.666764 0.621302 0.629146 0.587723 0.621302 0.574342 0.587723 0.54477 0.587723 0.54477 0.548811 0.510038 0.629146 0.587723 0.586051 0.548811 0.914821 0.872752 0.87163 0.833551 0.872752 0.826923 0.833551 0.79165 0.833551 0.79165 0.789183 0.751284 0.87163 0.833551 0.82323 0.789183 0.826923 0.778069 0.79165 0.746663 0.778069 0.726826 0.746663 0.699223 0.746663 0.699223 0.71027 0.666764 0.79165 0.746663 0.751284 0.71027 0.751284 0.71027 0.705544 0.668594 0.71027 0.666764 0.668594 0.629146 0.668594 0.629146 0.621328 0.586051 0.705544 0.668594 0.654137 0.621328 0.82323 0.789183 0.769382 0.739383 0.789183 0.751284 0.739383 0.705544 0.739383 0.705544 0.683882 0.654137 0.769382 0.739383 0.709845 0.683882 0.525239 0.457205 0.525522 0.459798 0.457205 0.389001 0.459798 0.393564 0.459798 0.393564 0.459771 0.395894 0.525522 0.459798 0.52287 0.459771 0.389001 0.320656 0.393564 0.326665 0.320656 0.25244 0.326665 0.259154 0.326665 0.259154 0.330905 0.264596 0.393564 0.326665 0.395894 0.330905 0.395894 0.330905 0.395698 0.333096 0.330905 0.264596 0.333096 0.268534 0.333096 0.268534 0.332921 0.270693 0.395698 0.333096 0.392654 0.332921 0.52287 0.459771 0.51701 0.456834 0.459771 0.395894 0.456834 0.395698 0.456834 0.395698 0.4