<?xml version="1.0" encoding="UTF-8"?>
<VTKFile type="UnstructuredGrid" version="0.1" byte_order="LittleEndian" compressor="vtkZLibDataCompressor">
    <UnstructuredGrid>
        <Piece NumberOfPoints="4096" NumberOfCells="1024">
            <Points>
                <DataArray type="Float64" Name="Array" NumberOfComponents="3" format="ascii" RangeMin="0" RangeMax="1">0 0 0 0.03125 0 0 0 0.03125 0 0.03125 0.03125 0 0.03125 0 0 0.0625 0 0 0.03125 0.03125 0 0.0625 0.03125 0 0.03125 0.03125 0 0.0625 0.03125 0 0.03125 0.0625 0 0.0625 0.0625 0 0 0.03125 0 0.03125 0.03125 0 0 0.0625 0 0.03125 0.0625 0 0.0625 0 0 0.09375 0 0 0.0625 0.03125 0 0.09375 0.03125 0 0.09375 0 0 0.125 0 0 0.09375 0.03125 0 0.125 0.03125 0 0.09375 0.03125 0 0.125 0.03125 0 0.09375 0.0625 0 0.125 0.0625 0 0.0625 0.03125 0 0.09375 0.03125 0 0.0625 0.0625 0 0.09375 0.0625 0 0.0625 0.0625 0 0.09375 0.0625 0 0.0625 0.09375 0 0.09375 0.09375 0 0.09375 0.0625 0 0.125 0.0625 0 0.09375 0.09375 0 0.125 0.09375 0 0.09375 0.09375 0 0.125 0.09375 0 0.09375 0.125 0 0.125 0.125 0 0.0625 0.09375 0 0.09375 0.09375 0 0.0625 0.125 0 0.09375 0.125 0 0 0.0625 0 0.03125 0.0625 0 0 0.09375 0 0.03125 0.09375 0 0.03125 0.0625 0 0.0625 0.0625 0 0.03125 0.09375 0 0.0625 0.09375 0 0.03125 0.09375 0 0.0625 0.09375 0 0.03125 0.125 0 0.0625 0.125 0 0 0.09375 0 0.03125 0.09375 0 0 0.125 0 0.03125 0.125 0 0.125 0 0 0.15625 0 0 0.125 0.03125 0 0.15625 0.03125 0 0.15625 0 0 0.1875 0 0 0.15625 0.03125 0 0.1875 0.03125 0 0.15625 0.03125 0 0.1875 0.03125 0 0.15625 0.0625 0 0.1875 0.0625 0 0.125 0.03125 0 0.15625 0.03125 0 0.125 0.0625 0 0.15625 0.0625 0 0.1875 0 0 0.21875 0 0 0.1875 0.03125 0 0.21875 0.03125 0 0.21875 0 0 0.25 0 0 0.21875 0.03125 0 0.25 0.03125 0 0.21875 0.03125 0 0.25 0.03125 0 0.21875 0.0625 0 0.25 0.0625 0 0.1875 0.03125 0 0.21875 0.03125 0 0.1875 0.0625 0 0.21875 0.0625 0 0.1875 0.0625 0 0.21875 0.0625 0 0.1875 0.09375 0 0.21875 0.09375 0 0.21875 0.0625 0 0.25 0.0625 0 0.21875 0.09375 0 0.25 0.09375 0 0.21875 0.09375 0 0.25 0.09375 0 0.21875 0.125 0 0.25 0.125 0 0.1875 0.09375 0 0.21875 0.09375 0 0.1875 0.125 0 0.21875 0.125 0 0.125 0.0625 0 0.15625 0.0625 0 0.125 0.09375 0 0.15625 0.09375 0 0.15625 0.0625 0 0.1875 0.0625 0 0.15625 0.09375 0 0.1875 0.09375 0 0.15625 0.09375 0 0.1875 0.09375 0 0.15625 0.125 0 0.1875 0.125 0 0.125 0.09375 0 0.15625 0.09375 0 0.125 0.125 0 0.15625 0.125 0 0.125 0.125 0 0.15625 0.125 0 0.125 0.15625 0 0.15625 0.15625 0 0.15625 0.125 0 0.1875 0.125 0 0.15625 0.15625 0 0.1875 0.15625 0 0.15625 0.15625 0 0.1875 0.15625 0 0.15625 0.1875 0 0.1875 0.1875 0 0.125 0.15625 0 0.15625 0.15625 0 0.125 0.1875 0 0.15625 0.1875 0 0.1875 0.125 0 0.21875 0.125 0 0.1875 0.15625 0 0.21875 0.15625 0 0.21875 0.125 0 0.25 0.125 0 0.21875 0.15625 0 0.25 0.15625 0 0.21875 0.15625 0 0.25 0.15625 0 0.21875 0.1875 0 0.25 0.1875 0 0.1875 0.15625 0 0.21875 0.15625 0 0.1875 0.1875 0 0.21875 0.1875 0 0.1875 0.1875 0 0.21875 0.1875 0 0.1875 0.21875 0 0.21875 0.21875 0 0.21875 0.1875 0 0.25 0.1875 0 0.21875 0.21875 0 0.25 0.21875 0 0.21875 0.21875 0 0.25 0.21875 0 0.21875 0.25 0 0.25 0.25 0 0.1875 0.21875 0 0.21875 0.21875 0 0.1875 0.25 0 0.21875 0.25 0 0.125 0.1875 0 0.15625 0.1875 0 0.125 0.21875 0 0.15625 0.21875 0 0.15625 0.1875 0 0.1875 0.1875 0 0.15625 0.21875 0 0.1875 0.21875 0 0.15625 0.21875 0 0.1875 0.21875 0 0.15625 0.25 0 0.1875 0.25 0 0.125 0.21875 0 0.15625 0.21875 0 0.125 0.25 0 0.15625 0.25 0 0 0.125 0 0.03125 0.125 0 0 0.15625 0 0.03125 0.15625 0 0.03125 0.125 0 0.0625 0.125 0 0.03125 0.15625 0 0.0625 0.15625 0 0.03125 0.15625 0 0.0625 0.15625 0 0.03125 0.1875 0 0.0625 0.1875 0 0 0.15625 0 0.03125 0.15625 0 0 0.1875 0 0.03125 0.1875 0 0.0625 0.125 0 0.09375 0.125 0 0.0625 0.15625 0 0.09375 0.15625 0 0.09375 0.125 0 0.125 0.125 0 0.09375 0.15625 0 0.125 0.15625 0 0.09375 0.15625 0 0.125 0.15625 0 0.09375 0.1875 0 0.125 0.1875 0 0.0625 0.15625 0 0.09375 0.15625 0 0.0625 0.1875 0 0.09375 0.1875 0 0.0625 0.1875 0 0.09375 0.1875 0 0.0625 0.21875 0 0.09375 0.21875 0 0.09375 0.1875 0 0.125 0.1875 0 0.09375 0.21875 0 0.125 0.21875 0 0.09375 0.21875 0 0.125 0.21875 0 0.09375 0.25 0 0.125 0.25 0 0.0625 0.21875 0 0.09375 0.21875 0 0.0625 0.25 0 0.09375 0.25 0 0 0.1875 0 0.03125 0.1875 0 0 0.21875 0 0.03125 0.21875 0 0.03125 0.1875 0 0.0625 0.1875 0 0.03125 0.21875 0 0.0625 0.21875 0 0.03125 0.21875 0 0.0625 0.21875 0 0.03125 0.25 0 0.0625 0.25 0 0 0.21875 0 0.03125 0.21875 0 0 0.25 0 0.03125 0.25 0 0.25 0 0 0.28125 0 0 0.25 0.03125 0 0.28125 0.03125 0 0.28125 0 0 0.3125 0 0 0.28125 0.03125 0 0.3125 0.03125 0 0.28125 0.03125 0 0.3125 0.03125 0 0.28125 0.0625 0 0.3125 0.0625 0 0.25 0.03125 0 0.28125 0.03125 0 0.25 0.0625 0 0.28125 0.0625 0 0.3125 0 0 0.34375 0 0 0.3125 0.03125 0 0.34375 0.03125 0 0.34375 0 0 0.375 0 0 0.34375 0.03125 0 0.375 0.03125 0 0.34375 0.03125 0 0.375 0.03125 0 0.34375 0.0625 0 0.375 0.0625 0 0.3125 0.03125 0 0.34375 0.03125 0 0.3125 0.0625 0 0.34375 0.0625 0 0.3125 0.0625 0 0.34375 0.0625 0 0.3125 0.09375 0 0.34375 0.09375 0 0.34375 0.0625 0 0.375 0.0625 0 0.34375 0.09375 0 0.375 0.09375 0 0.34375 0.09375 0 0.375 0.09375 0 0.34375 0.125 0 0.375 0.125 0 0.3125 0.09375 0 0.34375 0.09375 0 0.3125 0.125 0 0.34375 0.125 0 0.25 0.0625 0 0.28125 0.0625 0 0.25 0.09375 0 0.28125 0.09375 0 0.28125 0.0625 0 0.3125 0.0625 0 0.28125 0.09375 0 0.3125 0.09375 0 0.28125 0.09375 0 0.3125 0.09375 0 0.28125 0.125 0 0.3125 0.125 0 0.25 0.09375 0 0.28125 0.09375 0 0.25 0.125 0 0.28125 0.125 0 0.375 0 0 0.40625 0 0 0.375 0.03125 0 0.40625 0.03125 0 0.40625 0 0 0.4375 0 0 0.40625 0.03125 0 0.4375 0.03125 0 0.40625 0.03125 0 0.4375 0.03125 0 0.40625 0.0625 0 0.4375 0.0625 0 0.375 0.03125 0 0.40625 0.03125 0 0.375 0.0625 0 0.40625 0.0625 0 0.4375 0 0 0.46875 0 0 0.4375 0.03125 0 0.46875 0.03125 0 0.46875 0 0 0.5 0 0 0.46875 0.03125 0 0.5 0.03125 0 0.46875 0.03125 0 0.5 0.03125 0 0.46875 0.0625 0 0.5 0.0625 0 0.4375 0.03125 0 0.46875 0.03125 0 0.4375 0.0625 0 0.46875 0.0625 0 0.4375 0.0625 0 0.46875 0.0625 0 0.4375 0.09375 0 0.46875 0.09375 0 0.46875 0.0625 0 0.5 0.0625 0 0.46875 0.09375 0 0.5 0.09375 0 0.46875 0.09375 0 0.5 0.09375 0 0.46875 0.125 0 0.5 0.125 0 0.4375 0.09375 0 0.46875 0.09375 0 0.4375 0.125 0 0.46875 0.125 0 0.375 0.0625 0 0.40625 0.0625 0 0.375 0.09375 0 0.40625 0.09375 0 0.40625 0.0625 0 0.4375 0.0625 0 0.40625 0.09375 0 0.4375 0.09375 0 0.40625 0.09375 0 0.4375 0.09375 0 0.40625 0.125 0 0.4375 0.125 0 0.375 0.09375 0 0.40625 0.09375 0 0.375 0.125 0 0.40625 0.125 0 0.375 0.125 0 0.40625 0.125 0 0.375 0.15625 0 0.40625 0.15625 0 0.40625 0.125 0 0.4375 0.125 0 0.40625 0.15625 0 0.4375 0.15625 0 0.40625 0.15625 0 0.4375 0.15625 0 0.40625 0.1875 0 0.4375 0.1875 0 0.375 0.15625 0 0.40625 0.15625 0 0.375 0.1875 0 0.40625 0.1875 0 0.4375 0.125 0 0.46875 0.125 0 0.4375 0.15625 0 0.46875 0.15625 0 0.46875 0.125 0 0.5 0.125 0 0.46875 0.15625 0 0.5 0.15625 0 0.46875 0.15625 0 0.5 0.15625 0 0.46875 0.1875 0 0.5 0.1875 0 0.4375 0.15625 0 0.46875 0.15625 0 0.4375 0.1875 0 0.46875 0.1875 0 0.4375 0.1875 0 0.46875 0.1875 0 0.4375 0.21875 0 0.46875 0.21875 0 0.46875 0.1875 0 0.5 0.1875 0 0.46875 0.21875 0 0.5 0.21875 0 0.46875 0.21875 0 0.5 0.21875 0 0.46875 0.25 0 0.5 0.25 0 0.4375 0.21875 0 0.46875 0.21875 0 0.4375 0.25 0 0.46875 0.25 0 0.375 0.1875 0 0.40625 0.1875 0 0.375 0.21875 0 0.40625 0.21875 0 0.40625 0.1875 0 0.4375 0.1875 0 0.40625 0.21875 0 0.4375 0.21875 0 0.40625 0.21875 0 0.4375 0.21875 0 0.40625 0.25 0 0.4375 0.25 0 0.375 0.21875 0 0.40625 0.21875 0 0.375 0.25 0 0.40625 0.25 0 0.25 0.125 0 0.28125 0.125 0 0.25 0.15625 0 0.28125 0.15625 0 0.28125 0.125 0 0.3125 0.125 0 0.28125 0.15625 0 0.3125 0.15625 0 0.28125 0.15625 0 0.3125 0.15625 0 0.28125 0.1875 0 0.3125 0.1875 0 0.25 0.15625 0 0.28125 0.15625 0 0.25 0.1875 0 0.28125 0.1875 0 0.3125 0.125 0 0.34375 0.125 0 0.3125 0.15625 0 0.34375 0.15625 0 0.34375 0.125 0 0.375 0.125 0 0.34375 0.15625 0 0.375 0.15625 0 0.34375 0.15625 0 0.375 0.15625 0 0.34375 0.1875 0 0.375 0.1875 0 0.3125 0.15625 0 0.34375 0.15625 0 0.3125 0.1875 0 0.34375 0.1875 0 0.3125 0.1875 0 0.34375 0.1875 0 0.3125 0.21875 0 0.34375 0.21875 0 0.34375 0.1875 0 0.375 0.1875 0 0.34375 0.21875 0 0.375 0.21875 0 0.34375 0.21875 0 0.375 0.21875 0 0.34375 0.25 0 0.375 0.25 0 0.3125 0.21875 0 0.34375 0.21875 0 0.3125 0.25 0 0.34375 0.25 0 0.25 0.1875 0 0.28125 0.1875 0 0.25 0.21875 0 0.28125 0.21875 0 0.28125 0.1875 0 0.3125 0.1875 0 0.28125 0.21875 0 0.3125 0.21875 0 0.28125 0.21875 0 0.3125 0.21875 0 0.28125 0.25 0 0.3125 0.25 0 0.25 0.21875 0 0.28125 0.21875 0 0.25 0.25 0 0.28125 0.25 0 0.25 0.25 0 0.28125 0.25 0 0.25 0.28125 0 0.28125 0.28125 0 0.28125 0.25 0 0.3125 0.25 0 0.28125 0.28125 0 0.3125 0.28125 0 0.28125 0.28125 0 0.3125 0.28125 0 0.28125 0.3125 0 0.3125 0.3125 0 0.25 0.28125 0 0.28125 0.28125 0 0.25 0.3125 0 0.28125 0.3125 0 0.3125 0.25 0 0.34375 0.25 0 0.3125 0.28125 0 0.34375 0.28125 0 0.34375 0.25 0 0.375 0.25 0 0.34375 0.28125 0 0.375 0.28125 0 0.34375 0.28125 0 0.375 0.28125 0 0.34375 0.3125 0 0.375 0.3125 0 0.3125 0.28125 0 0.34375 0.28125 0 0.3125 0.3125 0 0.34375 0.3125 0 0.3125 0.3125 0 0.34375 0.3125 0 0.3125 0.34375 0 0.34375 0.34375 0 0.34375 0.3125 0 0.375 0.3125 0 0.34375 0.34375 0 0.375 0.34375 0 0.34375 0.34375 0 0.375 0.34375 0 0.34375 0.375 0 0.375 0.375 0 0.3125 0.34375 0 0.34375 0.34375 0 0.3125 0.375 0 0.34375 0.375 0 0.25 0.3125 0 0.28125 0.3125 0 0.25 0.34375 0 0.28125 0.34375 0 0.28125 0.3125 0 0.3125 0.3125 0 0.28125 0.34375 0 0.3125 0.34375 0 0.28125 0.34375 0 0.3125 0.34375 0 0.28125 0.375 0 0.3125 0.375 0 0.25 0.34375 0 0.28125 0.34375 0 0.25 0.375 0 0.28125 0.375 0 0.375 0.25 0 0.40625 0.25 0 0.375 0.28125 0 0.40625 0.28125 0 0.40625 0.25 0 0.4375 0.25 0 0.40625 0.28125 0 0.4375 0.28125 0 0.40625 0.28125 0 0.4375 0.28125 0 0.40625 0.3125 0 0.4375 0.3125 0 0.375 0.28125 0 0.40625 0.28125 0 0.375 0.3125 0 0.40625 0.3125 0 0.4375 0.25 0 0.46875 0.25 0 0.4375 0.28125 0 0.46875 0.28125 0 0.46875 0.25 0 0.5 0.25 0 0.46875 0.28125 0 0.5 0.28125 0 0.46875 0.28125 0 0.5 0.28125 0 0.46875 0.3125 0
[...]
            <PointData>
                <DataArray Name="u" type="Float64" format="ascii">1.98079 1.99518 1.92388 1.899 1.99518 1.98079 1.899 1.88175 1.899 1.88175 1.79943 1.77816 1.92388 1.899 1.83147 1.79943 1.98079 1.95694 1.88175 1.85899 1.95694 1.92388 1.85899 1.8299 1.85899 1.8299 1.75777 1.73335 1.88175 1.85899 1.77816 1.75777 1.77816 1.75777 1.66616 1.65102 1.75777 1.73335 1.65102 1.63295 1.65102 1.63295 1.5374 1.52792 1.66616 1.65102 1.54312 1.5374 1.83147 1.79943 1.70711 1.68269 1.79943 1.77816 1.68269 1.66616 1.68269 1.66616 1.54796 1.54312 1.70711 1.68269 1.55557 1.54796 1.92388 1.88192 1.8299 1.79359 1.88192 1.83147 1.79359 1.74975 1.79359 1.74975 1.70305 1.66601 1.8299 1.79359 1.73335 1.70305 1.83147 1.77301 1.74975 1.69848 1.77301 1.70711 1.69848 1.64009 1.69848 1.64009 1.62199 1.57108 1.74975 1.69848 1.66601 1.62199 1.66601 1.62199 1.57989 1.54338 1.62199 1.57108 1.54338 1.50006 1.54338 1.50006 1.4626 1.42706 1.57989 1.54338 1.4912 1.4626 1.73335 1.70305 1.63295 1.60961 1.70305 1.66601 1.60961 1.57989 1.60961 1.57989 1.51285 1.4912 1.63295 1.60961 1.52792 1.51285 1.52792 1.51285 1.41822 1.41279 1.51285 1.4912 1.41279 1.40003 1.41279 1.40003 1.31 1.30682 1.41822 1.41279 1.30463 1.31 1.4912 1.4626 1.40003 1.3798 1.4626 1.42706 1.3798 1.35225 1.3798 1.35225 1.29535 1.27598 1.40003 1.3798 1.30682 1.29535 1.30682 1.29535 1.21234 1.20985 1.29535 1.27598 1.20985 1.19871 1.20985 1.19871 1.12409 1.12109 1.21234 1.20985 1.11764 1.12409 1.30463 1.31 1.18864 1.20551 1.31 1.30682 1.20551 1.21234 1.20551 1.21234 1.10075 1.11764 1.18864 1.20551 1.07225 1.10075 1.55557 1.54796 1.38268 1.39775 1.54796 1.54312 1.39775 1.40957 1.39775 1.40957 1.23621 1.26784 1.38268 1.39775 1.19509 1.23621 1.54312 1.5374 1.40957 1.41683 1.5374 1.52792 1.41683 1.41822 1.41683 1.41822 1.2906 1.30463 1.40957 1.41683 1.26784 1.2906 1.26784 1.2906 1.12136 1.16093 1.2906 1.30463 1.16093 1.18864 1.16093 1.18864 1.03069 1.07225 1.12136 1.16093 0.97417 1.03069 1.19509 1.23621 1 1.06846 1.23621 1.26784 1.06846 1.12136 1.06846 1.12136 0.900104 0.97417 1 1.06846 0.80491 0.900104 1.70711 1.63439 1.64009 1.57506 1.63439 1.55557 1.57506 1.50398 1.57506 1.50398 1.51365 1.45018 1.64009 1.57506 1.57108 1.51365 1.55557 1.4714 1.50398 1.42753 1.4714 1.38268 1.42753 1.34647 1.42753 1.34647 1.38129 1.30767 1.50398 1.42753 1.45018 1.38129 1.45018 1.38129 1.39426 1.33279 1.38129 1.30767 1.33279 1.26646 1.33279 1.26646 1.28221 1.223 1.39426 1.33279 1.33637 1.28221 1.57108 1.51365 1.50006 1.4502 1.51365 1.45018 1.4502 1.39426 1.4502 1.39426 1.38483 1.33637 1.50006 1.4502 1.42706 1.38483 1.38268 1.29028 1.34647 1.26158 1.29028 1.19509 1.26158 1.17371 1.26158 1.17371 1.23008 1.1493 1.34647 1.26158 1.30767 1.23008 1.19509 1.09802 1.17371 1.08372 1.09802 1 1.08372 0.992489 1.08372 0.992489 1.06615 0.981475 1.17371 1.08372 1.1493 1.06615 1.1493 1.06615 1.12206 1.04553 1.06615 0.981475 1.04553 0.967178 1.04553 0.967178 1.02207 0.949828 1.12206 1.04553 1.09219 1.02207 1.30767 1.23008 1.26646 1.19596 1.23008 1.1493 1.19596 1.12206 1.19596 1.12206 1.15941 1.09219 1.26646 1.19596 1.223 1.15941 1.223 1.15941 1.17751 1.12066 1.15941 1.09219 1.12066 1.05992 1.12066 1.05992 1.07995 1.02549 1.17751 1.12066 1.13025 1.07995 1.09219 1.02207 1.05992 0.996006 1.02207 0.949828 0.996006 0.929663 0.996006 0.929663 0.967579 0.906935 1.05992 0.996006 1.02549 0.967579 1.02549 0.967579 0.989169 0.937051 0.967579 0.906935 0.937051 0.881901 0.937051 0.881901 0.904697 0.854828 0.989169 0.937051 0.951247 0.904697 1.13025 1.07995 1.08151 1.03756 1.07995 1.02549 1.03756 0.989169 1.03756 0.989169 0.993792 0.951247 1.08151 1.03756 1.03163 0.993792 1.42706 1.38483 1.35225 1.31773 1.38483 1.33637 1.31773 1.2767 1.31773 1.2767 1.24919 1.21554 1.35225 1.31773 1.27598 1.24919 1.33637 1.28221 1.2767 1.22975 1.28221 1.223 1.22975 1.17751 1.22975 1.17751 1.17567 1.13025 1.2767 1.22975 1.21554 1.17567 1.21554 1.17567 1.15325 1.12031 1.17567 1.13025 1.12031 1.08151 1.12031 1.08151 1.06402 1.03163 1.15325 1.12031 1.09025 1.06402 1.27598 1.24919 1.19871 1.17961 1.24919 1.21554 1.17961 1.15325 1.17961 1.15325 1.10953 1.09025 1.19871 1.17961 1.12109 1.10953 1.12109 1.10953 1.04384 1.03952 1.10953 1.09025 1.03952 1.02702 1.03952 1.02702 0.970213 0.964099 1.04384 1.03952 0.967764 0.970213 1.09025 1.06402 1.02702 1.00723 1.06402 1.03163 1.00723 0.980959 1.00723 0.980959 0.95037 0.929886 1.02702 1.00723 0.964099 0.95037 0.964099 0.95037 0.902 0.89388 0.95037 0.929886 0.89388 0.878789 0.89388 0.878789 0.838188 0.828034 0.902 0.89388 0.841225 0.838188 0.967764 0.970213 0.89366 0.902258 0.970213 0.964099 0.902258 0.902 0.902258 0.902 0.836252 0.841225 0.89366 0.902258 0.822263 0.836252 1.03163 0.993792 0.980959 0.948976 0.993792 0.951247 0.948976 0.91202 0.948976 0.91202 0.903445 0.871792 0.980959 0.948976 0.929886 0.903445 0.951247 0.904697 0.91202 0.870797 0.904697 0.854828 0.870797 0.825985 0.870797 0.825985 0.835635 0.795643 0.91202 0.870797 0.871792 0.835635 0.871792 0.835635 0.830869 0.799493 0.835635 0.795643 0.799493 0.764067 0.799493 0.764067 0.762644 0.731513 0.830869 0.799493 0.789545 0.762644 0.929886 0.903445 0.878789 0.857535 0.903445 0.871792 0.857535 0.830869 0.857535 0.830869 0.811571 0.789545 0.878789 0.857535 0.828034 0.811571 0.828034 0.811571 0.777961 0.765858 0.811571 0.789545 0.765858 0.748095 0.765858 0.748095 0.720663 0.706767 0.777961 0.765858 0.728865 0.720663 0.789545 0.762644 0.748095 0.725341 0.762644 0.731513 0.725341 0.69822 0.725341 0.69822 0.687816 0.664408 0.748095 0.725341 0.706767 0.687816 0.706767 0.687816 0.665772 0.65027 0.687816 0.664408 0.65027 0.630268 0.65027 0.630268 0.612866 0.595959 0.665772 0.65027 0.62528 0.612866 0.728865 0.720663 0.680987 0.676212 0.720663 0.706767 0.676212 0.665772 0.676212 0.665772 0.632678 0.62528 0.680987 0.676212 0.634505 0.632678 0.822263 0.836252 0.754198 0.772722 0.836252 0.841225 0.772722 0.782223 0.772722 0.782223 0.712084 0.725361 0.754198 0.772722 0.689938 0.712084 0.841225 0.838188 0.782223 0.783678 0.838188 0.828034 0.783678 0.777961 0.783678 0.777961 0.730681 0.728865 0.782223 0.783678 0.725361 0.730681 0.725361 0.730681 0.670916 0.679453 0.730681 0.728865 0.679453 0.680987 0.679453 0.680987 0.630173 0.634505 0.670916 0.679453 0.61906 0.630173 0.689938 0.712084 0.629778 0.654629 0.712084 0.725361 0.654629 0.670916 0.654629 0.670916 0.60051 0.61906 0.629778 0.654629 0.573832 0.60051 0.80491 0.900104 0.617317 0.736915 0.900104 0.97417 0.736915 0.830608 0.736915 0.830608 0.584531 0.694981 0.617317 0.736915 0.44443 0.584531 0.97417 1.03069 0.830608 0.903069 1.03069 1.07225 0.903069 0.9578 0.903069 0.9578 0.781293 0.84768 0.830608 0.903069 0.694981 0.781293 0.694981 0.781293 0.57128 0.668381 0.781293 0.84768 0.668381 0.744164 0.668381 0.744164 0.566865 0.649179 0.57128 0.668381 0.462873 0.566865 0.44443 0.584531 0.292893 0.448161 0.584531 0.694981 0.448161 0.57128 0.448161 0.57128 0.332283 0.462873 0.292893 0.448161 0.16853 0.332283 1.07225 1.10075 0.9578 0.997436 1.10075 1.11764 0.997436 1.02399 0.997436 1.02399 0.89734 0.932709 0.9578 0.997436 0.84768 0.89734 1.11764 1.12409 1.02399 1.03902 1.12409 1.12109 1.03902 1.04384 1.03902 1.04384 0.95568 0.967764 1.02399 1.03902 0.932709 0.95568 0.932709 0.95568 0.845121 0.875065 0.95568 0.967764 0.875065 0.89366 0.875065 0.89366 0.798097 0.822263 0.845121 0.875065 0.762383 0.798097 0.84768 0.89734 0.744164 0.802181 0.89734 0.932709 0.802181 0.845121 0.802181 0.845121 0.713444 0.762383 0.744164 0.802181 0.649179 0.713444 0.649179 0.713444 0.564104 0.632246 0.713444 0.762383 0.632246 0.685405 0.632246 0.685405 0.559225 0.61478 0.564104 0.632246 0.489612 0.559225 0.762383 0.798097 0.685405 0.72553 0.798097 0.822263 0.72553 0.754198 0.72553 0.754198 0.657895 0.689938 0.685405 0.72553 0.61478 0.657895 0.61478 0.657895 0.550741 0.595474 0.657895 0.689938 0.595474 0.629778 0.595474 0.629778 0.538305 0.573832 0.550741 0.595474 0.493186 0.538305 0.489612 0.559225 0.425608 0.494508 0.559225 0.61478 0.494508 0.550741 0.494508 0.550741 0.437744 0.493186 0.425608 0.494508 0.371307 0.437744 0.16853 0.332283 0.0761205 0.240286 0.332283 0.462873 0.240286 0.372132 0.240286 0.372132 0.173862 0.299849 0.0761205 0.240286 0.0192147 0.173862 0.462873 0.566865 0.372132 0.478498 0.566865 0.649179 0.478498 0.564104 0.478498 0.564104 0.403977 0.489612 0.372132 0.478498 0.299849 0.403977 0.299849 0.403977 0.244828 0.342798 0.403977 0.489612 0.342798 0.425608 0.342798 0.425608 0.293398 0.371307 0.244828 0.342798 0.204007 0.293398 0.0192147 0.173862 0 0.130609 0.173862 0.299849 0.130609 0.244828 0.130609 0.244828 0.104321 0.204007 0 0.130609 0 0.104321 1 0.901983 0.992489 0.900917 0.901983 0.80491 0.900917 0.809888 0.900917 0.809888 0.896108 0.810891 0.992489 0.900917 0.981475 0.896108 0.80491 0.709715 0.809888 0.720283 0.709715 0.617317 0.720283 0.632961 0.720283 0.632961 0.726653 0.644197 0.809888 0.720283 0.810891 0.726653 0.810891 0.726653 0.808171 0.729092 0.726653 0.644197 0.729092 0.651309 0.729092 0.651309 0.72787 0.654586 0.808171 0.729092 0.801982 0.72787 0.981475 0.896108 0.967178 0.887793 0.896108 0.810891 0.887793 0.808171 0.887793 0.808171 0.876213 0.801982 0.967178 0.887793 0.949828 0.876213 0.617317 0.528603 0.632961 0.548752 0.528603 0.44443 0.548752 0.468447 0.548752 0.468447 0.564296 0.487681 0.632961 0.548752 0.644197 0.564296 0.44443 0.365607 0.468447 0.392788 0.365607 0.292893 0.392788 0.322461 0.392788 0.322461 0.41503 0.346955 0.468447 0.392788 0.487681 0.41503 0.487681 0.41503 0.502465 0.432693 0.41503 0.346955 0.432693 0.366772 0.432693 0.366772 0.446134 0.382306 0.502465 0.432693 0.513127 0.446134 0.644197 0.564296 0.651309 0.575542 0.564296 0.487681 0.575542 0.502465 0.575542 0.502465 0.582797 0.513127 0.651309 0.575542 0.654586 0.582797 0.654586 0.582797 0.654312 0.586365 0.582797 0.513127 0.586365 0.519992 0.586365 0.519992 0.586544 0.523376 0.654312 0.586365 0.650774 0.586544 0.513127 0.446134 0.519992 0.455704 0.446134 0.382306 0.455704 0.393936 0.455704 0.393936 0.461738 0.402021 0.519992 0.455704 0.523376 0.461738 0.523376 0.461738 0.523584 0.464558 0.461738 0.402021 0.464558 0.406901 0.464558 0.406901 0.464465 0.408888 0.523584 0.464558 0.520908 0.464465 0.650774 0.586544 0.64425 0.583625 0.586544 0.523376 0.583625 0.523584 0.583625 0.523584 0.577892 0.520908 0.64425 0.583625 0.635015 0.577892 0.949828 0.876213 0.929663 0.861617 0.876213 0.801982 0.861617 0.792584 0.861617 0.792584 0.844259 0.780239 0.929663 0.861617 0.906935 0.844259 0.801982 0.72787 0.792584 0.72326 0.72787 0.654586 0.72326 0.654312 0.72326 0.654312 0.715534 0.650774 0.792584 0.72326 0.780239 0.715534 0.780239 0.715534 0.765211 0.704962 0.715534 0.650774 0.704962 0.64425 0.704962 0.64425 0.691812 0.635015 0.765211 0.704962 0.747764 0.691812 0.906935 0.844259 0.881901 0.824401 0.844259 0.780239 0.824401 0.765211 0.824401 0.765211 0.802304 0.747764 0.881901 0.824401 0.854828 0.802304 0.292893 0.22699 0.322461 0.258081 0.22699 0.16853 0.258081 0.200183 0.258081 0.200183 0.28399 0.226574 0.322461 0.258081 0.346955 0.28399 0.16853 0.118079 0.200183 0.149202 0.118079 0.0761205 0.149202 0.105453 0.149202 0.105453 0.175024 0.129503 0.200183 0.149202 0.226574 0.175024 0.226574 0.175024 0.248218 0.196155 0.175024 0.129503 0.196155 0.149017 0.196155 0.149017 0.213163 0.164663 0.248218 0.196155 0.265609 0.213163 0.346955 0.28399 0.366772 0.305163 0.28399 0.226574 0.305163 0.248218 0.305163 0.248218 0.322037 0.265609 0.366772 0.305163 0.382306 0.322037 0.0761205 0.0430597 0.105453 0.0690906 0.0430597 0.0192147 0.0690906 0.0400223 0.0690906 0.0400223 0.0899543 0.0559931 0.105453 0.0690906 0.129503 0.0899543 0.0192147 0.00481527 0.0400223 0.0177015 0.00481527 0 0.0177015 0 0.0177015 0 0.0266376 0 0.0400223 0.0177015 0.0559931 0.0266376 0.0559931 0.0266376 0.068404 0.0333922 0.0266376 0 0.0333922 0 0.0333922 0 0.0386279 0 0.068404 0.0333922 0.0781389 0.0386279 0.129503 0.0899543 0.149017 0.106611 0.0899543 0.0559931 0.106611 0.068404 0.106611 0.068404 0.119843 0.0781389 0.149017 0.106611 0.164663 0.119843 0.164663 0.119843 0.177005 0.130251 0.119843 0.0781389 0.130251 0.0857568 0.130251 0.0857568 0.138287 0.0916409 0.177005 0.130251 0.186505 0.138287 0.0781389 0.0386279 0.0857568 0.0427054 0.0386279 0 0.0427054 0 0.0427054 0 0.0458531 0 0.0857568 0.0427054 0.0916409 0.0458531 0.0916409 0.0458531 0.0960703 0.0482297 0.0458531 0 0.0482297 0 0.0482297 0 0.0499533 0 0.0960703 0.0482297 0.0992583 0.0499533 0.186505 0.138287 0.193545 0.144303 0.138287 0.0916409 0.144303 0.0960703 0.144303 0.0960703 0.148577 0.0992583 0.193545 0.144303 0.198439 0.148577 0.382306 0.322037 0.393936 0.335028 0.322037 0.265609 0.335028 0.279206 0.335028 0.279206 0.344522 0.289427 0.393936 0.335028 0.402021 0.344522 0.265609 0.213163 0.279206 0.22656 0.213163 0.164663 0.22656 0.177005 0.22656 0.177005 0.23679 0.186505 0.279206 0.22656 0.289427 0.23679 0.289427 0.23679 0.296644 0.244236 0.23679 0.186505 0.244236 0.193545 0.244236 0.193545 0.24923 0.198439 0.296644 0.244236 0.301188 0.24923 0.402021 0.344522 0.406901 0.350877 0.344522 0.289427 0.350877 0.296644 0.350877 0.296644 0.354416 0.301188 0.406901 0.350877 0.408888 0.354416 0.408888 0.354416 0.408274 0.355434 0.354416 0.301188 0.355434 0.303353 0.355434 0.303353 0.354195 0.303397 0.408274 0.355434 0.405324 0.354195 0.301188 0.24923 0.303353 0.252055 0.24923 0.198439 0.252055 0.201452 0.252055 0.201452 0.252958 0.202806 0.303353 0.252055 0.303397 0.252958 0.303397 0.252958 0.301552 0.252155 0.252958 0.202806 0.252155 0.202694 0.252155 0.202694 0.249833 0.201281 0.301552 0.252155 0.298021 0.249833 0.405324 0.354195 0.40028 0.350939 0.354195 0.303397 0.350939 0.301552 0.350939 0.301552 0.34588 0.298021 0.40028 0.350939 0.393364 0.34588 0.198439 0.148577 0.201452 0.151335 0.148577 0.0992583 0.151335 0.101374 0.151335 0.101374 0.152765 0.102554 0.201452 0.151335 0.202806 0.152765 0.0992583 0.0499533 0.101374 0.0511156 0.0499533 0 0.0511156 0 0.0511156 0 0.0517901 0 0.101374 0.0511156 0.102554 0.0517901 0.102554 0.0517901 0.102914 0.0520375 0.0517901 0 0.0520375 0 0.0520375 0 0.0519085 0 0.102914 0.0520375 0.102548 0.0519085 0.202806 0.152765 0.202694 0.153026 0.152765 0.102554 0.153026 0.102914 0.153026 0.102914 0.152251 0.102548 0.202694 0.153026 0.201281 0.152251 0.201281 0.152251 0.19871 0.150556 0.152251 0.102548 0.150556 0.10154 0.150556 0.10154 0.14804 0.0999592 0.19871 0.150556 0.195103 0.14804 0.102548 0.0519085 0.10154 0.051446 0.0519085 0 0.051446 0 0.051446 0 0.0506865 0 0.10154 0.051446 0.0999592 0.0506865 0.0999592 0.0506865 0.0978648 0.0496612 0.0506865 0 0.0496612 0 0.0496612 0 0.0483962 0 0.0978648 0.0496612 0.0953076 0.0483962 0.195103 0.14804 0.190567 0.144788 0.14804 0.0999592 0.144788 0.0978648 0.144788 0.0978648 0.140872 0.0953076 0.190567 0.144788 0.185194 0.140872 0.393364 0.34588 0.384774 0.339208 0.34588 0.298021 0.339208 0.292984 0.339208 0.292984 0.331093 0.286599 0.384774 0.339208 0.374687 0.331093 0.298021 0.249833 0.292984 0.246157 0.249833 0.201281 0.246157 0.19871 0.246157 0.19871 0.241269 0.195103 0.292984 0.246157 0.286599 0.241269 0.286599 0.241269 0.279004 0.235293 0.241269 0.195103 0.235293 0.190567 0.235293 0.190567 0.228336 0.185194 0.279004 0.235293 0.270316 0.228336 0.374687 0.331093 0.363259 0.321683 0.331093 0.286599 0.321683 0.279004 0.321683 0.279004 0.311105 0.270316 0.363259 0.321683 0.350625 0.311105 0.854828 0.802304 0.825985 0.778234 0.802304 0.747764 0.778234 0.72816 0.778234 0.72816 0.75245 0.706656 0.825985 0.778234 0.795643 0.75245 0.747764 0.691812 0.72816 0.676347 0.691812 0.635015 0.676347 0.623334 0.676347 0.623334 0.658821 0.609462 0.72816 0.676347 0.706656 0.658821 0.706656 0.658821 0.683499 0.639479 0.658821 0.609462 0.639479 0.593643 0.639479 0.593643 0.618552 0.576106 0.683499 0.639479 0.658927 0.618552 0.795643 0.75245 0.764067 0.725209 0.75245 0.706656 0.725209 0.683499 0.725209 0.683499 0.696753 0.658927 0.764067 0.725209 0.731513 0.696753 0.635015 0.577892 0.623334 0.569614 0.577892 0.520908 0.569614 0.515626 0.569614 0.515626 0.559049 0.507997 0.623334 0.569614 0.609462 0.559049 0.520908 0.464465 0.515626 0.461745 0.464465 0.408888 0.461745 0.408274 0.461745 0.408274 0.45666 0.405324 0.515626 0.461745 0.507997 0.45666 0.507997 0.45666 0.498265 0.449455 0.45666 0.405324 0.449455 0.40028 0.449455 0.40028 0.440354 0.393364 0.498265 0.449455 0.486658 0.440354 0.609462 0.559049 0.593643 0.54644 0.559049 0.507997 0.54644 0.498265 0.54644 0.498265 0.532015 0.486658 0.593643 0.54644 0.576106 0.532015 0.576106 0.532015 0.557062 0.515983 0.532015 0.486658 0.515983 0.473381 0.515983 0.473381 0.498535 0.458621 0.557062 0.515983 0.536707 0.498535 0.486658 0.440354 0.473381 0.429561 0.440354 0.393364 0.429561 0.384774 0.429561 0.384774 0.417258 0.374687 0.473381 0.429561 0.458621 0.417258 0.458621 0.417258 0.442544 0.403606 0.417258 0.374687 0.403606 0.363259 0.403606 0.363259 0.388746 0.350625 0.442544 0.403606 0.425293 0.388746 0.536707 0.498535 0.51521 0.479839 0.498535 0.458621 0.479839 0.442544 0.479839 0.442544 0.460042 0.425293 0.51521 0.479839 0.492722 0.460042 0.731513 0.696753 0.69822 0.667313 0.696753 0.658927 0.667313 0.63316 0.667313 0.63316 0.637098 0.6064 0.69822 0.667313 0.664408 0.637098 0.658927 0.618552 0.63316 0.596258 0.618552 0.576106 0.596258 0.557062 0.596258 0.557062 0.572792 0.536707 0.63316 0.596258 0.6064 0.572792 0.6064 0.572792 0.578828 0.548331 0.572792 0.536707 0.548331 0.51521 0.548331 0.51521 0.523025 0.492722 0.578828 0.548331 0.550597 0.523025 0.664408 0.637098 0.630268 0.606291 0.637098 0.6064 0.606291 0.578828 0.606291 0.578828 0.57505 0.550597 0.630268 0.606291 0.595959 0.57505 0.595959 0.57505 0.561608 0.543499 0.57505 0.550597 0.543499 0.521831 0.543499 0.521831 0.511731 0.492625 0.561608 0.543499 0.527301 0.511731 0.550597 0.523025 0.521831 0.496998 0.523025 0.492722 0.496998 0.469366 0.496998 0.469366 0.470347 0.445239 0.521831 0.496998 0.492625 0.470347 0.492625 0.470347 0.463037 0.443135 0.470347 0.445239 0.443135 0.420406 0.443135 0.420406 0.415394 0.394905 0.463037 0.443135 0.433094 0.415394 0.527301 0.511731 0.493087 0.4798 0.511731 0.492625 0.4798 0.463037 0.4798 0.463037 0.447721 0.433094 0.493087 0.4798 0.458971 0.447721 0.492722 0.460042 0.469366 0.439266 0.460042 0.425293 0.439266 0.40699 0.439266 0.40699 0.417607 0.38773 0.469366 0.439266 0.445239 0.417607 0.425293 0.388746 0.40699 0.372796 0.388746 0.350625 0.372796 0.336897 0.372796 0.336897 0.355848 0.322168 0.40699 0.372796 0.38773 0.355848 0.38773 0.355848 0.367582 0.337974 0.355848 0.322168 0.337974 0.306505 0.337974 0.306505 0.319217 0.289953 0.367582 0.337974 0.34659 0.319217 0.445239 0.417607 0.420406 0.395136 0.417607 0.38773 0.395136 0.367582 0.395136 0.367582 0.371891 0.34659 0.420406 0.395136 0.394905 0.371891 0.394905 0.371891 0.368739 0.347882 0.371891 0.34659 0.347882 0.324768 0.347882 0.324768 0.323087 0.302101 0.368739 0.347882 0.341877 0.323087 0.34659 0.319217 0.324768 0.299595 0.319217 0.289953 0.299595 0.272533 0.299595 0.272533 0.279098 0.254239 0.324768 0.299595 0.302101 0.279098 0.302101 0.279098 0.278539 0.257687 0.279098 0.254239 0.257687 0.235038 0.257687 0.235038 0.23529 0.214868 0.278539 0.257687 0.254004 0.23529 0.341877 0.323087 0.314255 0.29745 0.323087 0.302101 0.29745 0.278539 0.29745 0.278539 0.270879 0.254004 0.314255 0.29745 0.285769 0.270879 0.458971 0.447721 0.424919 0.415473 0.447721 0.433094 0.415473 0.402783 0.415473 0.402783 0.382993 0.372054 0.424919 0.415473 0.390851 0.382993 0.433094 0.415394 0.402783 0.387119 0.415394 0.394905 0.387119 0.368739 0.387119 0.368739 0.358272 0.341877 0.402783 0.387119 0.372054 0.358272 0.372054 0.358272 0.340817 0.328775 0.358272 0.341877 0.328775 0.314255 0.328775 0.314255 0.298513 0.285769 0.340817 0.328775 0.308943 0.298513 0.390851 0.382993 0.356647 0.350178 0.382993 0.372054 0.350178 0.340817 0.350178 0.340817 0.316881 0.308943 0.356647 0.350178 0.322145 0.316881 0.350625 0.311105 0.336897 0.299468 0.311105 0.270316 0.299468 0.260635 0.299468 0.260635 0.286856 0.250042 0.33