<?xml version="1.0" encoding="UTF-8"?>
<VTKFile type="UnstructuredGrid" version="0.1" byte_order="LittleEndian" compressor="vtkZLibDataCompressor">
    <UnstructuredGrid>
        <Piece NumberOfPoints="4096" NumberOfCells="1024">
            <Points>
                <DataArray type="Float64" Name="Array" NumberOfComponents="3" format="ascii" RangeMin="0" RangeMax="1">0 0 0 0.03125 0 0 0 0.03125 0 0.03125 0.03125 0 0.03125 0 0 0.0625 0 0 0.03125 0.03125 0 0.0625 0.03125 0 0.03125 0.03125 0 0.0625 0.03125 0 0.03125 0.0625 0 0.0625 0.0625 0 0 0.03125 0 0.03125 0.03125 0 0 0.0625 0 0.03125 0.0625 0 0.0625 0 0 0.09375 0 0 0.0625 0.03125 0 0.09375 0.03125 0 0.09375 0 0 0.125 0 0 0.09375 0.03125 0 0.125 0.03125 0 0.09375 0.03125 0 0.125 0.03125 0 0.09375 0.0625 0 0.125 0.0625 0 0.0625 0.03125 0 0.09375 0.03125 0 0.0625 0.0625 0 0.09375 0.0625 0 0.0625 0.0625 0 0.09375 0.0625 0 0.0625 0.09375 0 0.09375 0.09375 0 0.09375 0.0625 0 0.125 0.0625 0 0.09375 0.09375 0 0.125 0.09375 0 0.09375 0.09375 0 0.125 0.09375 0 0.09375 0.125 0 0.125 0.125 0 0.0625 0.09375 0 0.09375 0.09375 0 0.0625 0.125 0 0.09375 0.125 0 0 0.0625 0 0.03125 0.0625 0 0 0.09375 0 0.03125 0.09375 0 0.03125 0.0625 0 0.0625 0.0625 0 0.03125 0.09375 0 0.0625 0.09375 0 0.03125 0.09375 0 0.0625 0.09375 0 0.03125 0.125 0 0.0625 0.125 0 0 0.09375 0 0.03125 0.09375 0 0 0.125 0 0.03125 0.125 0 0.125 0 0 0.15625 0 0 0.125 0.03125 0 0.15625 0.03125 0 0.15625 0 0 0.1875 0 0 0.15625 0.03125 0 0.1875 0.03125 0 0.15625 0.03125 0 0.1875 0.03125 0 0.15625 0.0625 0 0.1875 0.0625 0 0.125 0.03125 0 0.15625 0.03125 0 0.125 0.0625 0 0.15625 0.0625 0 0.1875 0 0 0.21875 0 0 0.1875 0.03125 0 0.21875 0.03125 0 0.21875 0 0 0.25 0 0 0.21875 0.03125 0 0.25 0.03125 0 0.21875 0.03125 0 0.25 0.03125 0 0.21875 0.0625 0 0.25 0.0625 0 0.1875 0.03125 0 0.21875 0.03125 0 0.1875 0.0625 0 0.21875 0.0625 0 0.1875 0.0625 0 0.21875 0.0625 0 0.1875 0.09375 0 0.21875 0.09375 0 0.21875 0.0625 0 0.25 0.0625 0 0.21875 0.09375 0 0.25 0.09375 0 0.21875 0.09375 0 0.25 0.09375 0 0.21875 0.125 0 0.25 0.125 0 0.1875 0.09375 0 0.21875 0.09375 0 0.1875 0.125 0 0.21875 0.125 0 0.125 0.0625 0 0.15625 0.0625 0 0.125 0.09375 0 0.15625 0.09375 0 0.15625 0.0625 0 0.1875 0.0625 0 0.15625 0.09375 0 0.1875 0.09375 0 0.15625 0.09375 0 0.1875 0.09375 0 0.15625 0.125 0 0.1875 0.125 0 0.125 0.09375 0 0.15625 0.09375 0 0.125 0.125 0 0.15625 0.125 0 0.125 0.125 0 0.15625 0.125 0 0.125 0.15625 0 0.15625 0.15625 0 0.15625 0.125 0 0.1875 0.125 0 0.15625 0.15625 0 0.1875 0.15625 0 0.15625 0.15625 0 0.1875 0.15625 0 0.15625 0.1875 0 0.1875 0.1875 0 0.125 0.15625 0 0.15625 0.15625 0 0.125 0.1875 0 0.15625 0.1875 0 0.1875 0.125 0 0.21875 0.125 0 0.1875 0.15625 0 0.21875 0.15625 0 0.21875 0.125 0 0.25 0.125 0 0.21875 0.15625 0 0.25 0.15625 0 0.21875 0.15625 0 0.25 0.15625 0 0.21875 0.1875 0 0.25 0.1875 0 0.1875 0.15625 0 0.21875 0.15625 0 0.1875 0.1875 0 0.21875 0.1875 0 0.1875 0.1875 0 0.21875 0.1875 0 0.1875 0.21875 0 0.21875 0.21875 0 0.21875 0.1875 0 0.25 0.1875 0 0.21875 0.21875 0 0.25 0.21875 0 0.21875 0.21875 0 0.25 0.21875 0 0.21875 0.25 0 0.25 0.25 0 0.1875 0.21875 0 0.21875 0.21875 0 0.1875 0.25 0 0.21875 0.25 0 0.125 0.1875 0 0.15625 0.1875 0 0.125 0.21875 0 0.15625 0.21875 0 0.15625 0.1875 0 0.1875 0.1875 0 0.15625 0.21875 0 0.1875 0.21875 0 0.15625 0.21875 0 0.1875 0.21875 0 0.15625 0.25 0 0.1875 0.25 0 0.125 0.21875 0 0.15625 0.21875 0 0.125 0.25 0 0.15625 0.25 0 0 0.125 0 0.03125 0.125 0 0 0.15625 0 0.03125 0.15625 0 0.03125 0.125 0 0.0625 0.125 0 0.03125 0.15625 0 0.0625 0.15625 0 0.03125 0.15625 0 0.0625 0.15625 0 0.03125 0.1875 0 0.0625 0.1875 0 0 0.15625 0 0.03125 0.15625 0 0 0.1875 0 0.03125 0.1875 0 0.0625 0.125 0 0.09375 0.125 0 0.0625 0.15625 0 0.09375 0.15625 0 0.09375 0.125 0 0.125 0.125 0 0.09375 0.15625 0 0.125 0.15625 0 0.09375 0.15625 0 0.125 0.15625 0 0.09375 0.1875 0 0.125 0.1875 0 0.0625 0.15625 0 0.09375 0.15625 0 0.0625 0.1875 0 0.09375 0.1875 0 0.0625 0.1875 0 0.09375 0.1875 0 0.0625 0.21875 0 0.09375 0.21875 0 0.09375 0.1875 0 0.125 0.1875 0 0.09375 0.21875 0 0.125 0.21875 0 0.09375 0.21875 0 0.125 0.21875 0 0.09375 0.25 0 0.125 0.25 0 0.0625 0.21875 0 0.09375 0.21875 0 0.0625 0.25 0 0.09375 0.25 0 0 0.1875 0 0.03125 0.1875 0 0 0.21875 0 0.03125 0.21875 0 0.03125 0.1875 0 0.0625 0.1875 0 0.03125 0.21875 0 0.0625 0.21875 0 0.03125 0.21875 0 0.0625 0.21875 0 0.03125 0.25 0 0.0625 0.25 0 0 0.21875 0 0.03125 0.21875 0 0 0.25 0 0.03125 0.25 0 0.25 0 0 0.28125 0 0 0.25 0.03125 0 0.28125 0.03125 0 0.28125 0 0 0.3125 0 0 0.28125 0.03125 0 0.3125 0.03125 0 0.28125 0.03125 0 0.3125 0.03125 0 0.28125 0.0625 0 0.3125 0.0625 0 0.25 0.03125 0 0.28125 0.03125 0 0.25 0.0625 0 0.28125 0.0625 0 0.3125 0 0 0.34375 0 0 0.3125 0.03125 0 0.34375 0.03125 0 0.34375 0 0 0.375 0 0 0.34375 0.03125 0 0.375 0.03125 0 0.34375 0.03125 0 0.375 0.03125 0 0.34375 0.0625 0 0.375 0.0625 0 0.3125 0.03125 0 0.34375 0.03125 0 0.3125 0.0625 0 0.34375 0.0625 0 0.3125 0.0625 0 0.34375 0.0625 0 0.3125 0.09375 0 0.34375 0.09375 0 0.34375 0.0625 0 0.375 0.0625 0 0.34375 0.09375 0 0.375 0.09375 0 0.34375 0.09375 0 0.375 0.09375 0 0.34375 0.125 0 0.375 0.125 0 0.3125 0.09375 0 0.34375 0.09375 0 0.3125 0.125 0 0.34375 0.125 0 0.25 0.0625 0 0.28125 0.0625 0 0.25 0.09375 0 0.28125 0.09375 0 0.28125 0.0625 0 0.3125 0.0625 0 0.28125 0.09375 0 0.3125 0.09375 0 0.28125 0.09375 0 0.3125 0.09375 0 0.28125 0.125 0 0.3125 0.125 0 0.25 0.09375 0 0.28125 0.09375 0 0.25 0.125 0 0.28125 0.125 0 0.375 0 0 0.40625 0 0 0.375 0.03125 0 0.40625 0.03125 0 0.40625 0 0 0.4375 0 0 0.40625 0.03125 0 0.4375 0.03125 0 0.40625 0.03125 0 0.4375 0.03125 0 0.40625 0.0625 0 0.4375 0.0625 0 0.375 0.03125 0 0.40625 0.03125 0 0.375 0.0625 0 0.40625 0.0625 0 0.4375 0 0 0.46875 0 0 0.4375 0.03125 0 0.46875 0.03125 0 0.46875 0 0 0.5 0 0 0.46875 0.03125 0 0.5 0.03125 0 0.46875 0.03125 0 0.5 0.03125 0 0.46875 0.0625 0 0.5 0.0625 0 0.4375 0.03125 0 0.46875 0.03125 0 0.4375 0.0625 0 0.46875 0.0625 0 0.4375 0.0625 0 0.46875 0.0625 0 0.4375 0.09375 0 0.46875 0.09375 0 0.46875 0.0625 0 0.5 0.0625 0 0.46875 0.09375 0 0.5 0.09375 0 0.46875 0.09375 0 0.5 0.09375 0 0.46875 0.125 0 0.5 0.125 0 0.4375 0.09375 0 0.46875 0.09375 0 0.4375 0.125 0 0.46875 0.125 0 0.375 0.0625 0 0.40625 0.0625 0 0.375 0.09375 0 0.40625 0.09375 0 0.40625 0.0625 0 0.4375 0.0625 0 0.40625 0.09375 0 0.4375 0.09375 0 0.40625 0.09375 0 0.4375 0.09375 0 0.40625 0.125 0 0.4375 0.125 0 0.375 0.09375 0 0.40625 0.09375 0 0.375 0.125 0 0.40625 0.125 0 0.375 0.125 0 0.40625 0.125 0 0.375 0.15625 0 0.40625 0.15625 0 0.40625 0.125 0 0.4375 0.125 0 0.40625 0.15625 0 0.4375 0.15625 0 0.40625 0.15625 0 0.4375 0.15625 0 0.40625 0.1875 0 0.4375 0.1875 0 0.375 0.15625 0 0.40625 0.15625 0 0.375 0.1875 0 0.40625 0.1875 0 0.4375 0.125 0 0.46875 0.125 0 0.4375 0.15625 0 0.46875 0.15625 0 0.46875 0.125 0 0.5 0.125 0 0.46875 0.15625 0 0.5 0.15625 0 0.46875 0.15625 0 0.5 0.15625 0 0.46875 0.1875 0 0.5 0.1875 0 0.4375 0.15625 0 0.46875 0.15625 0 0.4375 0.1875 0 0.46875 0.1875 0 0.4375 0.1875 0 0.46875 0.1875 0 0.4375 0.21875 0 0.46875 0.21875 0 0.46875 0.1875 0 0.5 0.1875 0 0.46875 0.21875 0 0.5 0.21875 0 0.46875 0.21875 0 0.5 0.21875 0 0.46875 0.25 0 0.5 0.25 0 0.4375 0.21875 0 0.46875 0.21875 0 0.4375 0.25 0 0.46875 0.25 0 0.375 0.1875 0 0.40625 0.1875 0 0.375 0.21875 0 0.40625 0.21875 0 0.40625 0.1875 0 0.4375 0.1875 0 0.40625 0.21875 0 0.4375 0.21875 0 0.40625 0.21875 0 0.4375 0.21875 0 0.40625 0.25 0 0.4375 0.25 0 0.375 0.21875 0 0.40625 0.21875 0 0.375 0.25 0 0.40625 0.25 0 0.25 0.125 0 0.28125 0.125 0 0.25 0.15625 0 0.28125 0.15625 0 0.28125 0.125 0 0.3125 0.125 0 0.28125 0.15625 0 0.3125 0.15625 0 0.28125 0.15625 0 0.3125 0.15625 0 0.28125 0.1875 0 0.3125 0.1875 0 0.25 0.15625 0 0.28125 0.15625 0 0.25 0.1875 0 0.28125 0.1875 0 0.3125 0.125 0 0.34375 0.125 0 0.3125 0.15625 0 0.34375 0.15625 0 0.34375 0.125 0 0.375 0.125 0 0.34375 0.15625 0 0.375 0.15625 0 0.34375 0.15625 0 0.375 0.15625 0 0.34375 0.1875 0 0.375 0.1875 0 0.3125 0.15625 0 0.34375 0.15625 0 0.3125 0.1875 0 0.34375 0.1875 0 0.3125 0.1875 0 0.34375 0.1875 0 0.3125 0.21875 0 0.34375 0.21875 0 0.34375 0.1875 0 0.375 0.1875 0 0.34375 0.21875 0 0.375 0.21875 0 0.34375 0.21875 0 0.375 0.21875 0 0.34375 0.25 0 0.375 0.25 0 0.3125 0.21875 0 0.34375 0.21875 0 0.3125 0.25 0 0.34375 0.25 0 0.25 0.1875 0 0.28125 0.1875 0 0.25 0.21875 0 0.28125 0.21875 0 0.28125 0.1875 0 0.3125 0.1875 0 0.28125 0.21875 0 0.3125 0.21875 0 0.28125 0.21875 0 0.3125 0.21875 0 0.28125 0.25 0 0.3125 0.25 0 0.25 0.21875 0 0.28125 0.21875 0 0.25 0.25 0 0.28125 0.25 0 0.25 0.25 0 0.28125 0.25 0 0.25 0.28125 0 0.28125 0.28125 0 0.28125 0.25 0 0.3125 0.25 0 0.28125 0.28125 0 0.3125 0.28125 0 0.28125 0.28125 0 0.3125 0.28125 0 0.28125 0.3125 0 0.3125 0.3125 0 0.25 0.28125 0 0.28125 0.28125 0 0.25 0.3125 0 0.28125 0.3125 0 0.3125 0.25 0 0.34375 0.25 0 0.3125 0.28125 0 0.34375 0.28125 0 0.34375 0.25 0 0.375 0.25 0 0.34375 0.28125 0 0.375 0.28125 0 0.34375 0.28125 0 0.375 0.28125 0 0.34375 0.3125 0 0.375 0.3125 0 0.3125 0.28125 0 0.34375 0.28125 0 0.3125 0.3125 0 0.34375 0.3125 0 0.3125 0.3125 0 0.34375 0.3125 0 0.3125 0.34375 0 0.34375 0.34375 0 0.34375 0.3125 0 0.375 0.3125 0 0.34375 0.34375 0 0.375 0.34375 0 0.34375 0.34375 0 0.375 0.34375 0 0.34375 0.375 0 0.375 0.375 0 0.3125 0.34375 0 0.34375 0.34375 0 0.3125 0.375 0 0.34375 0.375 0 0.25 0.3125 0 0.28125 0.3125 0 0.25 0.34375 0 0.28125 0.34375 0 0.28125 0.3125 0 0.3125 0.3125 0 0.28125 0.34375 0 0.3125 0.34375 0 0.28125 0.34375 0 0.3125 0.34375 0 0.28125 0.375 0 0.3125 0.375 0 0.25 0.34375 0 0.28125 0.34375 0 0.25 0.375 0 0.28125 0.375 0 0.375 0.25 0 0.40625 0.25 0 0.375 0.28125 0 0.40625 0.28125 0 0.40625 0.25 0 0.4375 0.25 0 0.40625 0.28125 0 0.4375 0.28125 0 0.40625 0.28125 0 0.4375 0.28125 0 0.40625 0.3125 0 0.4375 0.3125 0 0.375 0.28125 0 0.40625 0.28125 0 0.375 0.3125 0 0.40625 0.3125 0 0.4375 0.25 0 0.46875 0.25 0 0.4375 0.28125 0 0.46875 0.28125 0 0.46875 0.25 0 0.5 0.25 0 0.46875 0.28125 0 0.5 0.28125 0 0.46875 0.28125 0 0.5 0.28125 0 0.46875 0.3125 0
[...]
            <PointData>
                <DataArray Name="u" type="Float64" format="ascii">0 0 0 0.00505705 0 0 0.00505705 -0.00142541 0.00505705 -0.00142541 -0.00142541 0.00464537 0 0.00505705 0 -0.00142541 0 0 -0.00142541 -0.000431196 0 0 -0.000431196 0.0042463 -0.000431196 0.0042463 -0.00403115 -0.00101379 -0.00142541 -0.000431196 0.00464537 -0.00403115 0.00464537 -0.00403115 -0.00403115 0.00546037 -0.00403115 -0.00101379 0.00546037 0.00141572 0.00546037 0.00141572 0.00141572 -0.00097416 -0.00403115 0.00546037 -0.00101379 0.00141572 0 -0.00142541 0 -0.000431196 -0.00142541 0.00464537 -0.000431196 -0.00403115 -0.000431196 -0.00403115 0.0042463 -0.00101379 0 -0.000431196 0 0.0042463 0 0 0.0042463 0.00266996 0 0 0.00266996 0.00177399 0.00266996 0.00177399 0.00038786 0.00184284 0.0042463 0.00266996 -0.00101379 0.00038786 0 0 0.00177399 -0.000993607 0 0 -0.000993607 0.00284587 -0.000993607 0.00284587 -0.000392183 -0.00247731 0.00177399 -0.000993607 0.00184284 -0.000392183 0.00184284 -0.000392183 -0.00437772 0.00328385 -0.000392183 -0.00247731 0.00328385 0.00262808 0.00328385 0.00262808 -0.0028404 0.0014444 -0.00437772 0.00328385 0.0066709 -0.0028404 -0.00101379 0.00038786 0.00141572 0.000815242 0.00038786 0.00184284 0.000815242 -0.00437772 0.000815242 -0.00437772 0.00286823 0.0066709 0.00141572 0.000815242 -0.00097416 0.00286823 -0.00097416 0.00286823 0.00286823 -0.00361707 0.00286823 0.0066709 -0.00361707 0.00509736 -0.00361707 0.00509736 0.00509736 -0.00749059 0.00286823 -0.00361707 0.0066709 0.00509736 0.0066709 -0.0028404 0.00509736 -0.000542569 -0.0028404 0.0014444 -0.000542569 -0.0063189 -0.000542569 -0.0063189 -0.00132693 0.00684875 0.00509736 -0.000542569 -0.00749059 -0.00132693 -0.00749059 -0.00132693 -0.00132693 0.009513 -0.00132693 0.00684875 0.009513 0.0322164 0.009513 0.0322164 0.0322164 0.0858424 -0.00132693 0.009513 0.00684875 0.0322164 0.0066709 0.00509736 -0.0028404 -0.000542569 0.00509736 -0.00749059 -0.000542569 -0.00132693 -0.000542569 -0.00132693 -0.0063189 0.00684875 -0.0028404 -0.000542569 0.0014444 -0.0063189 0 0.0042463 0 0.00266996 0.0042463 -0.00101379 0.00266996 0.00038786 0.00266996 0.00038786 0.00177399 0.00184284 0 0.00266996 0 0.00177399 -0.00101379 0.00141572 0.00038786 0.000815242 0.00141572 -0.00097416 0.000815242 0.00286823 0.000815242 0.00286823 -0.00437772 0.0066709 0.00038786 0.000815242 0.00184284 -0.00437772 0.00184284 -0.00437772 -0.000392183 0.00328385 -0.00437772 0.0066709 0.00328385 -0.0028404 0.00328385 -0.0028404 0.00262808 0.0014444 -0.000392183 0.00328385 -0.00247731 0.00262808 0 0.00177399 0 -0.000993607 0.00177399 0.00184284 -0.000993607 -0.000392183 -0.000993607 -0.000392183 0.00284587 -0.00247731 0 -0.000993607 0 0.00284587 0 0 0.00284587 -0.0013123 0 0 -0.0013123 -0.00660176 -0.0013123 -0.00660176 0.0063148 0.00244281 0.00284587 -0.0013123 -0.00247731 0.0063148 0 0 -0.00660176 3.33306e-05 0 0 3.33306e-05 0.00393293 3.33306e-05 0.00393293 -0.00325627 -0.00157229 -0.00660176 3.33306e-05 0.00244281 -0.00325627 0.00244281 -0.00325627 0.00109593 0.000478341 -0.00325627 -0.00157229 0.000478341 0.00295336 0.000478341 0.00295336 -0.00162844 -0.00946353 0.00109593 0.000478341 -0.00399411 -0.00162844 -0.00247731 0.0063148 0.00262808 -0.00561668 0.0063148 0.00244281 -0.00561668 0.00109593 -0.00561668 0.00109593 -0.00181528 -0.00399411 0.00262808 -0.00561668 0.0014444 -0.00181528 0 0 0.00393293 0.00575159 0 0 0.00575159 0.00887244 0.00575159 0.00887244 -0.00517876 -0.00411906 0.00393293 0.00575159 -0.00157229 -0.00517876 0 0 0.00887244 0.00630259 0 0 0.00630259 0.00142529 0.00630259 0.00142529 0.000748018 -0.00191127 0.00887244 0.00630259 -0.00411906 0.000748018 -0.00411906 0.000748018 0.00366911 0.00514878 0.000748018 -0.00191127 0.00514878 0.0096664 0.00514878 0.0096664 -0.0125614 -0.00448679 0.00366911 0.00514878 -0.00347598 -0.0125614 -0.00157229 -0.00517876 0.00295336 0.00873738 -0.00517876 -0.00411906 0.00873738 0.00366911 0.00873738 0.00366911 -0.00570062 -0.00347598 0.00295336 0.00873738 -0.00946353 -0.00570062 -0.00946353 -0.00570062 0.0234975 0.016357 -0.00570062 -0.00347598 0.016357 0.02011 0.016357 0.02011 0.0889055 0.0815116 0.0234975 0.016357 0.0839647 0.0889055 -0.00347598 -0.0125614 0.02011 0.00503548 -0.0125614 -0.00448679 0.00503548 -0.0203937 0.00503548 -0.0203937 0.0769287 0.0379003 0.02011 0.00503548 0.0815116 0.0769287 0.0815116 0.0769287 0.215483 0.193558 0.0769287 0.0379003 0.193558 0.159925 0.193558 0.159925 0.353357 0.311379 0.215483 0.193558 0.386603 0.353357 0.0839647 0.0889055 0.193719 0.222977 0.0889055 0.0815116 0.222977 0.215483 0.222977 0.215483 0.377865 0.386603 0.193719 0.222977 0.340717 0.377865 0.0014444 -0.00181528 -0.0063189 -0.00228872 -0.00181528 -0.00399411 -0.00228872 0.00170302 -0.00228872 0.00170302 0.0248865 0.0362719 -0.0063189 -0.00228872 0.00684875 0.0248865 -0.00399411 -0.00162844 0.00170302 0.0194829 -0.00162844 -0.00946353 0.0194829 0.0234975 0.0194829 0.0234975 0.0519272 0.0839647 0.00170302 0.0194829 0.0362719 0.0519272 0.0362719 0.0519272 0.119388 0.159486 0.0519272 0.0839647 0.159486 0.193719 0.159486 0.193719 0.290958 0.340717 0.119388 0.159486 0.210956 0.290958 0.00684875 0.0248865 0.0322164 0.0656895 0.0248865 0.0362719 0.0656895 0.119388 0.0656895 0.119388 0.141284 0.210956 0.0322164 0.0656895 0.0858424 0.141284 0.0858424 0.141284 0.141284 0.249106 0.141284 0.210956 0.249106 0.337477 0.249106 0.337477 0.337477 0.458184 0.141284 0.249106 0.210956 0.337477 0.210956 0.290958 0.337477 0.426834 0.290958 0.340717 0.426834 0.490497 0.426834 0.490497 0.554626 0.634814 0.337477 0.426834 0.458184 0.554626 0.458184 0.554626 0.554626 0.647122 0.554626 0.634814 0.647122 0.734092 0.647122 0.734092 0.734092 0.80849 0.554626 0.647122 0.634814 0.734092 0.210956 0.337477 0.290958 0.426834 0.337477 0.458184 0.426834 0.554626 0.426834 0.554626 0.490497 0.634814 0.290958 0.426834 0.340717 0.490497 0.340717 0.377865 0.490497 0.520844 0.377865 0.386603 0.520844 0.540365 0.520844 0.540365 0.664906 0.674778 0.490497 0.520844 0.634814 0.664906 0.386603 0.353357 0.540365 0.512995 0.353357 0.311379 0.512995 0.453159 0.512995 0.453159 0.65751 0.58747 0.540365 0.512995 0.674778 0.65751 0.674778 0.65751 0.778919 0.768337 0.65751 0.58747 0.768337 0.705118 0.768337 0.705118 0.839363 0.782504 0.778919 0.768337 0.860894 0.839363 0.634814 0.664906 0.734092 0.776929 0.664906 0.674778 0.776929 0.778919 0.776929 0.778919 0.85771 0.860894 0.734092 0.776929 0.80849 0.85771 0.80849 0.85771 0.85771 0.906646 0.85771 0.860894 0.906646 0.911611 0.906646 0.911611 0.911611 0.920509 0.85771 0.906646 0.860894 0.911611 0.860894 0.839363 0.911611 0.888095 0.839363 0.782504 0.888095 0.830569 0.888095 0.830569 0.899407 0.84171 0.911611 0.888095 0.920509 0.899407 0.920509 0.899407 0.899407 0.869935 0.899407 0.84171 0.869935 0.814288 0.869935 0.814288 0.814288 0.76178 0.899407 0.869935 0.84171 0.814288 0.860894 0.911611 0.839363 0.888095 0.911611 0.920509 0.888095 0.899407 0.888095 0.899407 0.830569 0.84171 0.839363 0.888095 0.782504 0.830569 0.340717 0.490497 0.377865 0.520844 0.490497 0.634814 0.520844 0.664906 0.520844 0.664906 0.540365 0.674778 0.377865 0.520844 0.386603 0.540365 0.634814 0.734092 0.664906 0.776929 0.734092 0.80849 0.776929 0.85771 0.776929 0.85771 0.778919 0.860894 0.664906 0.776929 0.674778 0.778919 0.674778 0.778919 0.65751 0.768337 0.778919 0.860894 0.768337 0.839363 0.768337 0.839363 0.705118 0.782504 0.65751 0.768337 0.58747 0.705118 0.386603 0.540365 0.353357 0.512995 0.540365 0.674778 0.512995 0.65751 0.512995 0.65751 0.453159 0.58747 0.353357 0.512995 0.311379 0.453159 0 0.00284587 0 -0.0013123 0.00284587 -0.00247731 -0.0013123 0.0063148 -0.0013123 0.0063148 -0.00660176 0.00244281 0 -0.0013123 0 -0.00660176 -0.00247731 0.00262808 0.0063148 -0.00561668 0.00262808 0.0014444 -0.00561668 -0.00181528 -0.00561668 -0.00181528 0.00109593 -0.00399411 0.0063148 -0.00561668 0.00244281 0.00109593 0.00244281 0.00109593 -0.00325627 0.000478341 0.00109593 -0.00399411 0.000478341 -0.00162844 0.000478341 -0.00162844 0.00295336 -0.00946353 -0.00325627 0.000478341 -0.00157229 0.00295336 0 -0.00660176 0 3.33306e-05 -0.00660176 0.00244281 3.33306e-05 -0.00325627 3.33306e-05 -0.00325627 0.00393293 -0.00157229 0 3.33306e-05 0 0.00393293 0.0014444 -0.0063189 -0.00181528 -0.00228872 -0.0063189 0.00684875 -0.00228872 0.0248865 -0.00228872 0.0248865 0.00170302 0.0362719 -0.00181528 -0.00228872 -0.00399411 0.00170302 0.00684875 0.0322164 0.0248865 0.0656895 0.0322164 0.0858424 0.0656895 0.141284 0.0656895 0.141284 0.119388 0.210956 0.0248865 0.0656895 0.0362719 0.119388 0.0362719 0.119388 0.0519272 0.159486 0.119388 0.210956 0.159486 0.290958 0.159486 0.290958 0.193719 0.340717 0.0519272 0.159486 0.0839647 0.193719 -0.00399411 0.00170302 -0.00162844 0.0194829 0.00170302 0.0362719 0.0194829 0.0519272 0.0194829 0.0519272 0.0234975 0.0839647 -0.00162844 0.0194829 -0.00946353 0.0234975 -0.00946353 0.0234975 -0.00570062 0.016357 0.0234975 0.0839647 0.016357 0.0889055 0.016357 0.0889055 0.02011 0.0815116 -0.00570062 0.016357 -0.00347598 0.02011 0.0839647 0.193719 0.0889055 0.222977 0.193719 0.340717 0.222977 0.377865 0.222977 0.377865 0.215483 0.386603 0.0889055 0.222977 0.0815116 0.215483 0.0815116 0.215483 0.0769287 0.193558 0.215483 0.386603 0.193558 0.353357 0.193558 0.353357 0.159925 0.311379 0.0769287 0.193558 0.0379003 0.159925 -0.00347598 0.02011 -0.0125614 0.00503548 0.02011 0.0815116 0.00503548 0.0769287 0.00503548 0.0769287 -0.0203937 0.0379003 -0.0125614 0.00503548 -0.00448679 -0.0203937 0 0.00393293 0 0.00575159 0.00393293 -0.00157229 0.00575159 -0.00517876 0.00575159 -0.00517876 0.00887244 -0.00411906 0 0.00575159 0 0.00887244 -0.00157229 0.00295336 -0.00517876 0.00873738 0.00295336 -0.00946353 0.00873738 -0.00570062 0.00873738 -0.00570062 0.00366911 -0.00347598 -0.00517876 0.00873738 -0.00411906 0.00366911 -0.00411906 0.00366911 0.000748018 0.00514878 0.00366911 -0.00347598 0.00514878 -0.0125614 0.00514878 -0.0125614 0.0096664 -0.00448679 0.000748018 0.00514878 -0.00191127 0.0096664 0 0.00887244 0 0.00630259 0.00887244 -0.00411906 0.00630259 0.000748018 0.00630259 0.000748018 0.00142529 -0.00191127 0 0.00630259 0 0.00142529 0 0 0.00142529 -0.000432321 0 0 -0.000432321 -0.000660074 -0.000432321 -0.000660074 -0.00411817 -0.000842505 0.00142529 -0.000432321 -0.00191127 -0.00411817 0 0 -0.000660074 -0.000307495 0 0 -0.000307495 0.000384455 -0.000307495 0.000384455 0.00121534 0.000589186 -0.000660074 -0.000307495 -0.000842505 0.00121534 -0.000842505 0.00121534 -0.00480522 -0.00226055 0.00121534 0.000589186 -0.00226055 0.00110345 -0.00226055 0.00110345 -0.00187975 -0.00210814 -0.00480522 -0.00226055 0.00733341 -0.00187975 -0.00191127 -0.00411817 0.0096664 0.00214823 -0.00411817 -0.000842505 0.00214823 -0.00480522 0.00214823 -0.00480522 0.0105901 0.00733341 0.0096664 0.00214823 -0.00448679 0.0105901 0 0 0.000384455 0.000530395 0 0 0.000530395 0.000181158 0.000530395 0.000181158 0.000193296 0.000285928 0.000384455 0.000530395 0.000589186 0.000193296 0 0 0.000181158 -3.6775e-05 0 0 -3.6775e-05 -3.30234e-05 -3.6775e-05 -3.30234e-05 0.000175393 1.64964e-05 0.000181158 -3.6775e-05 0.000285928 0.000175393 0.000285928 0.000175393 6.29316e-05 -4.52625e-05 0.000175393 1.64964e-05 -4.52625e-05 2.10404e-05 -4.52625e-05 2.10404e-05 0.000257498 -5.4658e-05 6.29316e-05 -4.52625e-05 0.00114968 0.000257498 0.000589186 0.000193296 0.00110345 0.000909751 0.000193296 0.000285928 0.000909751 6.29316e-05 0.000909751 6.29316e-05 0.000890678 0.00114968 0.00110345 0.000909751 -0.00210814 0.000890678 -0.00210814 0.000890678 0.000529224 -0.00140314 0.000890678 0.00114968 -0.00140314 -2.42435e-05 -0.00140314 -2.42435e-05 0.00145917 -0.000635263 0.000529224 -0.00140314 0.00490305 0.00145917 0.00114968 0.000257498 -2.42435e-05 0.000403737 0.000257498 -5.4658e-05 0.000403737 0.000105848 0.000403737 0.000105848 -0.000282689 5.9614e-05 -2.42435e-05 0.000403737 -0.000635263 -0.000282689 -0.000635263 -0.000282689 0.00134104 2.72927e-06 -0.000282689 5.9614e-05 2.72927e-06 -0.000116757 2.72927e-06 -0.000116757 0.000526079 2.59133e-05 0.00134104 2.72927e-06 0.000162178 0.000526079 0.00490305 0.00145917 -0.00482447 0.00197831 0.00145917 -0.000635263 0.00197831 0.00134104 0.00197831 0.00134104 -0.00463602 0.000162178 -0.00482447 0.00197831 -0.00654589 -0.00463602 -0.00448679 0.0105901 -0.0203937 -0.0149234 0.0105901 0.00733341 -0.0149234 0.00486175 -0.0149234 0.00486175 -0.0113233 -0.0190738 -0.0203937 -0.0149234 0.0379003 -0.0113233 0.00733341 -0.00187975 0.00486175 0.00744545 -0.00187975 -0.00210814 0.00744545 0.000529224 0.00744545 0.000529224 -0.00183863 0.00490305 0.00486175 0.00744545 -0.0190738 -0.00183863 -0.0190738 -0.00183863 0.0121664 -0.012987 -0.00183863 0.00490305 -0.012987 -0.00482447 -0.012987 -0.00482447 0.0285102 -0.00654589 0.0121664 -0.012987 0.125816 0.0285102 0.0379003 -0.0113233 0.159925 0.0866156 -0.0113233 -0.0190738 0.0866156 0.0121664 0.0866156 0.0121664 0.240846 0.125816 0.159925 0.0866156 0.311379 0.240846 0 0 -3.30234e-05 -3.34765e-07 0 0 -3.34765e-07 2.85091e-06 -3.34765e-07 2.85091e-06 -1.57989e-05 -2.12861e-06 -3.30234e-05 -3.34765e-07 1.64964e-05 -1.57989e-05 0 0 2.85091e-06 -3.27926e-08 0 0 -3.27926e-08 -2.11619e-07 -3.27926e-08 -2.11619e-07 1.32998e-06 7.0704e-08 2.85091e-06 -3.27926e-08 -2.12861e-06 1.32998e-06 -2.12861e-06 1.32998e-06 -2.41237e-06 -8.86361e-07 1.32998e-06 7.0704e-08 -8.86361e-07 2.7524e-07 -8.86361e-07 2.7524e-07 8.89757e-07 -4.22008e-07 -2.41237e-06 -8.86361e-07 4.59897e-06 8.89757e-07 1.64964e-05 -1.57989e-05 2.10404e-05 1.03337e-05 -1.57989e-05 -2.12861e-06 1.03337e-05 -2.41237e-06 1.03337e-05 -2.41237e-06 -1.89224e-05 4.59897e-06 2.10404e-05 1.03337e-05 -5.4658e-05 -1.89224e-05 0 0 -2.11619e-07 2.39697e-08 0 0 2.39697e-08 1.14201e-08 2.39697e-08 1.14201e-08 -1.03842e-07 9.4105e-09 -2.11619e-07 2.39697e-08 7.0704e-08 -1.03842e-07 0 0 1.14201e-08 -3.30224e-09 0 0 -3.30224e-09 0 -3.30224e-09 0 4.71556e-09 0 1.14201e-08 -3.30224e-09 9.4105e-09 4.71556e-09 9.4105e-09 4.71556e-09 -2.53986e-08 1.92211e-09 4.71556e-09 0 1.92211e-09 0 1.92211e-09 0 -5.34197e-09 0 -2.53986e-08 1.92211e-09 2.77744e-08 -5.34197e-09 7.0704e-08 -1.03842e-07 2.7524e-07 3.74115e-08 -1.03842e-07 9.4105e-09 3.74115e-08 -2.53986e-08 3.74115e-08 -2.53986e-08 2.16548e-09 2.77744e-08 2.7524e-07 3.74115e-08 -4.22008e-07 2.16548e-09 -4.22008e-07 2.16548e-09 3.99505e-07 -1.72546e-07 2.16548e-09 2.77744e-08 -1.72546e-07 -1.84319e-10 -1.72546e-07 -1.84319e-10 9.09324e-08 -4.66344e-08 3.99505e-07 -1.72546e-07 5.24468e-07 9.09324e-08 2.77744e-08 -5.34197e-09 -1.84319e-10 9.65331e-09 -5.34197e-09 0 9.65331e-09 0 9.65331e-09 0 2.58673e-09 0 -1.84319e-10 9.65331e-09 -4.66344e-08 2.58673e-09 -4.66344e-08 2.58673e-09 1.73498e-08 -9.91579e-09 2.58673e-09 0 -9.91579e-09 0 -9.91579e-09 0 4.00426e-11 0 1.73498e-08 -9.91579e-09 3.73826e-08 4.00426e-11 5.24468e-07 9.09324e-08 -5.58551e-07 1.217e-07 9.09324e-08 -4.66344e-08 1.217e-07 1.73498e-08 1.217e-07 1.73498e-08 -1.22449e-07 3.73826e-08 -5.58551e-07 1.217e-07 -2.77386e-07 -1.22449e-07 -5.4658e-05 -1.89224e-05 0.000105848 -2.34373e-05 -1.89224e-05 4.59897e-06 -2.34373e-05 -8.35285e-06 -2.34373e-05 -8.35285e-06 3.26647e-05 -4.87882e-06 0.000105848 -2.34373e-05 5.9614e-05 3.26647e-05 4.59897e-06 8.89757e-07 -8.35285e-06 1.95411e-06 8.89757e-07 -4.22008e-07 1.95411e-06 3.99505e-07 1.95411e-06 3.99505e-07 -2.24477e-06 5.24468e-07 -8.35285e-06 1.95411e-06 -4.87882e-06 -2.24477e-06 -4.87882e-06 -2.24477e-06 9.09526e-06 -7.30646e-07 -2.24477e-06 5.24468e-07 -7.30646e-07 -5.58551e-07 -7.30646e-07 -5.58551e-07 2.52467e-06 -2.77386e-07 9.09526e-06 -7.30646e-07 -1.02042e-07 2.52467e-06 5.9614e-05 3.26647e-05 -0.000116757 5.5521e-07 3.26647e-05 -4.87882e-06 5.5521e-07 9.09526e-06 5.5521e-07 9.09526e-06 -3.79687e-05 -1.02042e-07 -0.000116757 5.5521e-07 2.59133e-05 -3.79687e-05 2.59133e-05 -3.79687e-05 0.000217611 2.75385e-06 -3.79687e-05 -1.02042e-07 2.75385e-06 -1.41761e-05 2.75385e-06 -1.41761e-05 9.611e-05 -1.16983e-05 0.000217611 2.75385e-06 0.000115734 9.611e-05 -1.02042e-07 2.52467e-06 -1.41761e-05 1.13239e-06 2.52467e-06 -2.77386e-07 1.13239e-06 7.58882e-07 1.13239e-06 7.58882e-07 -5.15626e-06 1.3226e-06 -1.41761e-05 1.13239e-06 -1.16983e-05 -5.15626e-06 -1.16983e-05 -5.15626e-06 3.07859e-05 -1.15999e-05 -5.15626e-06 1.3226e-06 -1.15999e-05 -8.52014e-07 -1.15999e-05 -8.52014e-07 -2.89668e-06 -5.28247e-06 3.07859e-05 -1.15999e-05 8.98124e-05 -2.89668e-06 0.000115734 9.611e-05 -0.000534943 0.000155193 9.611e-05 -1.16983e-05 0.000155193 3.07859e-05 0.000155193 3.07859e-05 -3.66595e-06 8.98124e-05 -0.000534943 0.000155193 -0.00146181 -3.66595e-06 -2.77386e-07 -1.22449e-07 7.58882e-07 -1.83954e-07 -1.22449e-07 3.73826e-08 -1.83954e-07 -1.58761e-08 -1.83954e-07 -1.58761e-08 1.44981e-07 -1.07535e-07 7.58882e-07 -1.83954e-07 1.3226e-06 1.44981e-07 3.73826e-08 4.00426e-11 -1.58761e-08 1.33102e-08 4.00426e-11 0 1.33102e-08 0 1.33102e-08 0 1.14061e-08 0 -1.58761e-08 1.33102e-08 -1.07535e-07 1.14061e-08 -1.07535e-07 1.14061e-08 -7.31311e-08 -3.3907e-08 1.14061e-08 0 -3.3907e-08 0 -3.3907e-08 0 -7.51833e-08 0 -7.31311e-08 -3.3907e-08 2.19191e-07 -7.51833e-08 1.3226e-06 1.44981e-07 -8.52014e-07 8.35147e-07 1.44981e-07 -1.07535e-07 8.35147e-07 -7.31311e-08 8.35147e-07 -7.31311e-08 7.36115e-07 2.19191e-07 -8.52014e-07 8.35147e-07 -5.28247e-06 7.36115e-07 -5.28247e-06 7.36115e-07 -6.28596e-06 -5.11634e-07 7.36115e-07 2.19191e-07 -5.11634e-07 4.25724e-07 -5.11634e-07 4.25724e-07 -1.36025e-06 2.99474e-07 -6.28596e-06 -5.11634e-07 -3.0228e-06 -1.36025e-06 2.19191e-07 -7.51833e-08 4.25724e-07 -3.62831e-08 -7.51833e-08 0 -3.62831e-08 0 -3.62831e-08 0 2.74567e-08 0 4.25724e-07 -3.62831e-08 2.99474e-07 2.74567e-08 2.99474e-07 2.74567e-08 1.12483e-07 3.5953e-08 2.74567e-08 0 3.5953e-08 0 3.5953e-08 0 1.60546e-08 0 1.12483e-07 3.5953e-08 6.19947e-08 1.60546e-08 -3.0228e-06 -1.36025e-06 -4.71172e-07 -1.12516e-06 -1.36025e-06 2.99474e-07 -1.12516e-06 1.12483e-07 -1.12516e-06 1.12483e-07 -6.62296e-07 6.19947e-08 -4.71172e-07 -1.12516e-06 -1.10899e-07 -6.62296e-07 -0.00146181 -3.66595e-06 -0.00176269 -0.000324437 -3.66595e-06 8.98124e-05 -0.000324437 9.1051e-05 -0.000324437 9.1051e-05 -0.000516605 3.85437e-05 -0.00176269 -0.000324437 -0.00128579 -0.000516605 8.98124e-05 -2.89668e-06 9.1051e-05 1.81127e-05 -2.89668e-06 -5.28247e-06 1.81127e-05 -6.28596e-06 1.81127e-05 -6.28596e-06 2.86834e-05 -3.0228e-06 9.1051e-05 1.81127e-05 3.85437e-05 2.86834e-05 3.85437e-05 2.86834e-05 3.92442e-07 2.40912e-05 2.86834e-05 -3.0228e-06 2.40912e-05 -4.71172e-07 2.40912e-05 -4.71172e-07 1.63922e-05 -1.10899e-07 3.92442e-07 2.40912e-05 -7.16916e-06 1.63922e-05 -0.00128579 -0.000516605 -0.000722263 -0.000497062 -0.000516605 3.85437e-05 -0.000497062 3.92442e-07 -0.000497062 3.92442e-07 -0.000385648 -7.16916e-06 -0.000722263 -0.000497062 -0.00040438 -0.000385648 0.311379 0.240846 0.453159 0.388439 0.240846 0.125816 0.388439 0.278178 0.388439 0.278178 0.508444 0.411374 0.453159 0.388439 0.58747 0.508444 0.125816 0.0285102 0.278178 0.13226 0.0285102 -0.00654589 0.13226 0.0292833 0.13226 0.0292833 0.257735 0.102117 0.278178 0.13226 0.411374 0.257735 0.411374 0.257735 0.50538 0.36366 0.257735 0.102117 0.36366 0.188335 0.36366 0.188335 0.434489 0.258686 0.50538 0.36366 0.573584 0.434489 0.58747 0.508444 0.705118 0.606586 0.508444 0.411374 0.606586 0.50538 0.606586 0.50538 0.685077 0.573584 0.705118 0.606586 0.782504 0.685077 -0.00654589 -0.00463602 0.0292833 -0.0037224 -0.00463602 0.000162178 -0.0037224 -0.00320128 -0.0037224 -0.00320128 0.0171662 -0.00309271 0.0292833 -0.0037224 0.102117 0.0171662 0.000162178 0.000526079 -0.00320128 -8.14013e-05 0.000526079 2.59133e-05 -8.14013e-05 0.000217611 -8.14013e-05 0.000217611 -0.00150972 0.000115734 -0.00320128 -8.14013e-05 -0.00309271 -0.00150972 -0.00309271 -0.00150972 0.00450114 -0.00274131 -0.00150972 0.000115734 -0.00274131 -0.000534943 -0.00274131 -0.000534943 -0.00156152 -0.00146181 0.00450114 -0.00274131 0.0203677 -0.00156152 0.102117 0.0171662 0.188335 0.05722