<?xml version="1.0" encoding="UTF-8"?>
<VTKFile type="UnstructuredGrid" version="0.1" byte_order="LittleEndian" compressor="vtkZLibDataCompressor">
    <UnstructuredGrid>
        <Piece NumberOfPoints="4096" NumberOfCells="1024">
            <Points>
                <DataArray type="Float64" Name="Array" NumberOfComponents="3" format="ascii" RangeMin="0" RangeMax="1">0 0 0 0.03125 0 0 0 0.03125 0 0.03125 0.03125 0 0.03125 0 0 0.0625 0 0 0.03125 0.03125 0 0.0625 0.03125 0 0.03125 0.03125 0 0.0625 0.03125 0 0.03125 0.0625 0 0.0625 0.0625 0 0 0.03125 0 0.03125 0.03125 0 0 0.0625 0 0.03125 0.0625 0 0.0625 0 0 0.09375 0 0 0.0625 0.03125 0 0.09375 0.03125 0 0.09375 0 0 0.125 0 0 0.09375 0.03125 0 0.125 0.03125 0 0.09375 0.03125 0 0.125 0.03125 0 0.09375 0.0625 0 0.125 0.0625 0 0.0625 0.03125 0 0.09375 0.03125 0 0.0625 0.0625 0 0.09375 0.0625 0 0.0625 0.0625 0 0.09375 0.0625 0 0.0625 0.09375 0 0.09375 0.09375 0 0.09375 0.0625 0 0.125 0.0625 0 0.09375 0.09375 0 0.125 0.09375 0 0.09375 0.09375 0 0.125 0.09375 0 0.09375 0.125 0 0.125 0.125 0 0.0625 0.09375 0 0.09375 0.09375 0 0.0625 0.125 0 0.09375 0.125 0 0 0.0625 0 0.03125 0.0625 0 0 0.09375 0 0.03125 0.09375 0 0.03125 0.0625 0 0.0625 0.0625 0 0.03125 0.09375 0 0.0625 0.09375 0 0.03125 0.09375 0 0.0625 0.09375 0 0.03125 0.125 0 0.0625 0.125 0 0 0.09375 0 0.03125 0.09375 0 0 0.125 0 0.03125 0.125 0 0.125 0 0 0.15625 0 0 0.125 0.03125 0 0.15625 0.03125 0 0.15625 0 0 0.1875 0 0 0.15625 0.03125 0 0.1875 0.03125 0 0.15625 0.03125 0 0.1875 0.03125 0 0.15625 0.0625 0 0.1875 0.0625 0 0.125 0.03125 0 0.15625 0.03125 0 0.125 0.0625 0 0.15625 0.0625 0 0.1875 0 0 0.21875 0 0 0.1875 0.03125 0 0.21875 0.03125 0 0.21875 0 0 0.25 0 0 0.21875 0.03125 0 0.25 0.03125 0 0.21875 0.03125 0 0.25 0.03125 0 0.21875 0.0625 0 0.25 0.0625 0 0.1875 0.03125 0 0.21875 0.03125 0 0.1875 0.0625 0 0.21875 0.0625 0 0.1875 0.0625 0 0.21875 0.0625 0 0.1875 0.09375 0 0.21875 0.09375 0 0.21875 0.0625 0 0.25 0.0625 0 0.21875 0.09375 0 0.25 0.09375 0 0.21875 0.09375 0 0.25 0.09375 0 0.21875 0.125 0 0.25 0.125 0 0.1875 0.09375 0 0.21875 0.09375 0 0.1875 0.125 0 0.21875 0.125 0 0.125 0.0625 0 0.15625 0.0625 0 0.125 0.09375 0 0.15625 0.09375 0 0.15625 0.0625 0 0.1875 0.0625 0 0.15625 0.09375 0 0.1875 0.09375 0 0.15625 0.09375 0 0.1875 0.09375 0 0.15625 0.125 0 0.1875 0.125 0 0.125 0.09375 0 0.15625 0.09375 0 0.125 0.125 0 0.15625 0.125 0 0.125 0.125 0 0.15625 0.125 0 0.125 0.15625 0 0.15625 0.15625 0 0.15625 0.125 0 0.1875 0.125 0 0.15625 0.15625 0 0.1875 0.15625 0 0.15625 0.15625 0 0.1875 0.15625 0 0.15625 0.1875 0 0.1875 0.1875 0 0.125 0.15625 0 0.15625 0.15625 0 0.125 0.1875 0 0.15625 0.1875 0 0.1875 0.125 0 0.21875 0.125 0 0.1875 0.15625 0 0.21875 0.15625 0 0.21875 0.125 0 0.25 0.125 0 0.21875 0.15625 0 0.25 0.15625 0 0.21875 0.15625 0 0.25 0.15625 0 0.21875 0.1875 0 0.25 0.1875 0 0.1875 0.15625 0 0.21875 0.15625 0 0.1875 0.1875 0 0.21875 0.1875 0 0.1875 0.1875 0 0.21875 0.1875 0 0.1875 0.21875 0 0.21875 0.21875 0 0.21875 0.1875 0 0.25 0.1875 0 0.21875 0.21875 0 0.25 0.21875 0 0.21875 0.21875 0 0.25 0.21875 0 0.21875 0.25 0 0.25 0.25 0 0.1875 0.21875 0 0.21875 0.21875 0 0.1875 0.25 0 0.21875 0.25 0 0.125 0.1875 0 0.15625 0.1875 0 0.125 0.21875 0 0.15625 0.21875 0 0.15625 0.1875 0 0.1875 0.1875 0 0.15625 0.21875 0 0.1875 0.21875 0 0.15625 0.21875 0 0.1875 0.21875 0 0.15625 0.25 0 0.1875 0.25 0 0.125 0.21875 0 0.15625 0.21875 0 0.125 0.25 0 0.15625 0.25 0 0 0.125 0 0.03125 0.125 0 0 0.15625 0 0.03125 0.15625 0 0.03125 0.125 0 0.0625 0.125 0 0.03125 0.15625 0 0.0625 0.15625 0 0.03125 0.15625 0 0.0625 0.15625 0 0.03125 0.1875 0 0.0625 0.1875 0 0 0.15625 0 0.03125 0.15625 0 0 0.1875 0 0.03125 0.1875 0 0.0625 0.125 0 0.09375 0.125 0 0.0625 0.15625 0 0.09375 0.15625 0 0.09375 0.125 0 0.125 0.125 0 0.09375 0.15625 0 0.125 0.15625 0 0.09375 0.15625 0 0.125 0.15625 0 0.09375 0.1875 0 0.125 0.1875 0 0.0625 0.15625 0 0.09375 0.15625 0 0.0625 0.1875 0 0.09375 0.1875 0 0.0625 0.1875 0 0.09375 0.1875 0 0.0625 0.21875 0 0.09375 0.21875 0 0.09375 0.1875 0 0.125 0.1875 0 0.09375 0.21875 0 0.125 0.21875 0 0.09375 0.21875 0 0.125 0.21875 0 0.09375 0.25 0 0.125 0.25 0 0.0625 0.21875 0 0.09375 0.21875 0 0.0625 0.25 0 0.09375 0.25 0 0 0.1875 0 0.03125 0.1875 0 0 0.21875 0 0.03125 0.21875 0 0.03125 0.1875 0 0.0625 0.1875 0 0.03125 0.21875 0 0.0625 0.21875 0 0.03125 0.21875 0 0.0625 0.21875 0 0.03125 0.25 0 0.0625 0.25 0 0 0.21875 0 0.03125 0.21875 0 0 0.25 0 0.03125 0.25 0 0.25 0 0 0.28125 0 0 0.25 0.03125 0 0.28125 0.03125 0 0.28125 0 0 0.3125 0 0 0.28125 0.03125 0 0.3125 0.03125 0 0.28125 0.03125 0 0.3125 0.03125 0 0.28125 0.0625 0 0.3125 0.0625 0 0.25 0.03125 0 0.28125 0.03125 0 0.25 0.0625 0 0.28125 0.0625 0 0.3125 0 0 0.34375 0 0 0.3125 0.03125 0 0.34375 0.03125 0 0.34375 0 0 0.375 0 0 0.34375 0.03125 0 0.375 0.03125 0 0.34375 0.03125 0 0.375 0.03125 0 0.34375 0.0625 0 0.375 0.0625 0 0.3125 0.03125 0 0.34375 0.03125 0 0.3125 0.0625 0 0.34375 0.0625 0 0.3125 0.0625 0 0.34375 0.0625 0 0.3125 0.09375 0 0.34375 0.09375 0 0.34375 0.0625 0 0.375 0.0625 0 0.34375 0.09375 0 0.375 0.09375 0 0.34375 0.09375 0 0.375 0.09375 0 0.34375 0.125 0 0.375 0.125 0 0.3125 0.09375 0 0.34375 0.09375 0 0.3125 0.125 0 0.34375 0.125 0 0.25 0.0625 0 0.28125 0.0625 0 0.25 0.09375 0 0.28125 0.09375 0 0.28125 0.0625 0 0.3125 0.0625 0 0.28125 0.09375 0 0.3125 0.09375 0 0.28125 0.09375 0 0.3125 0.09375 0 0.28125 0.125 0 0.3125 0.125 0 0.25 0.09375 0 0.28125 0.09375 0 0.25 0.125 0 0.28125 0.125 0 0.375 0 0 0.40625 0 0 0.375 0.03125 0 0.40625 0.03125 0 0.40625 0 0 0.4375 0 0 0.40625 0.03125 0 0.4375 0.03125 0 0.40625 0.03125 0 0.4375 0.03125 0 0.40625 0.0625 0 0.4375 0.0625 0 0.375 0.03125 0 0.40625 0.03125 0 0.375 0.0625 0 0.40625 0.0625 0 0.4375 0 0 0.46875 0 0 0.4375 0.03125 0 0.46875 0.03125 0 0.46875 0 0 0.5 0 0 0.46875 0.03125 0 0.5 0.03125 0 0.46875 0.03125 0 0.5 0.03125 0 0.46875 0.0625 0 0.5 0.0625 0 0.4375 0.03125 0 0.46875 0.03125 0 0.4375 0.0625 0 0.46875 0.0625 0 0.4375 0.0625 0 0.46875 0.0625 0 0.4375 0.09375 0 0.46875 0.09375 0 0.46875 0.0625 0 0.5 0.0625 0 0.46875 0.09375 0 0.5 0.09375 0 0.46875 0.09375 0 0.5 0.09375 0 0.46875 0.125 0 0.5 0.125 0 0.4375 0.09375 0 0.46875 0.09375 0 0.4375 0.125 0 0.46875 0.125 0 0.375 0.0625 0 0.40625 0.0625 0 0.375 0.09375 0 0.40625 0.09375 0 0.40625 0.0625 0 0.4375 0.0625 0 0.40625 0.09375 0 0.4375 0.09375 0 0.40625 0.09375 0 0.4375 0.09375 0 0.40625 0.125 0 0.4375 0.125 0 0.375 0.09375 0 0.40625 0.09375 0 0.375 0.125 0 0.40625 0.125 0 0.375 0.125 0 0.40625 0.125 0 0.375 0.15625 0 0.40625 0.15625 0 0.40625 0.125 0 0.4375 0.125 0 0.40625 0.15625 0 0.4375 0.15625 0 0.40625 0.15625 0 0.4375 0.15625 0 0.40625 0.1875 0 0.4375 0.1875 0 0.375 0.15625 0 0.40625 0.15625 0 0.375 0.1875 0 0.40625 0.1875 0 0.4375 0.125 0 0.46875 0.125 0 0.4375 0.15625 0 0.46875 0.15625 0 0.46875 0.125 0 0.5 0.125 0 0.46875 0.15625 0 0.5 0.15625 0 0.46875 0.15625 0 0.5 0.15625 0 0.46875 0.1875 0 0.5 0.1875 0 0.4375 0.15625 0 0.46875 0.15625 0 0.4375 0.1875 0 0.46875 0.1875 0 0.4375 0.1875 0 0.46875 0.1875 0 0.4375 0.21875 0 0.46875 0.21875 0 0.46875 0.1875 0 0.5 0.1875 0 0.46875 0.21875 0 0.5 0.21875 0 0.46875 0.21875 0 0.5 0.21875 0 0.46875 0.25 0 0.5 0.25 0 0.4375 0.21875 0 0.46875 0.21875 0 0.4375 0.25 0 0.46875 0.25 0 0.375 0.1875 0 0.40625 0.1875 0 0.375 0.21875 0 0.40625 0.21875 0 0.40625 0.1875 0 0.4375 0.1875 0 0.40625 0.21875 0 0.4375 0.21875 0 0.40625 0.21875 0 0.4375 0.21875 0 0.40625 0.25 0 0.4375 0.25 0 0.375 0.21875 0 0.40625 0.21875 0 0.375 0.25 0 0.40625 0.25 0 0.25 0.125 0 0.28125 0.125 0 0.25 0.15625 0 0.28125 0.15625 0 0.28125 0.125 0 0.3125 0.125 0 0.28125 0.15625 0 0.3125 0.15625 0 0.28125 0.15625 0 0.3125 0.15625 0 0.28125 0.1875 0 0.3125 0.1875 0 0.25 0.15625 0 0.28125 0.15625 0 0.25 0.1875 0 0.28125 0.1875 0 0.3125 0.125 0 0.34375 0.125 0 0.3125 0.15625 0 0.34375 0.15625 0 0.34375 0.125 0 0.375 0.125 0 0.34375 0.15625 0 0.375 0.15625 0 0.34375 0.15625 0 0.375 0.15625 0 0.34375 0.1875 0 0.375 0.1875 0 0.3125 0.15625 0 0.34375 0.15625 0 0.3125 0.1875 0 0.34375 0.1875 0 0.3125 0.1875 0 0.34375 0.1875 0 0.3125 0.21875 0 0.34375 0.21875 0 0.34375 0.1875 0 0.375 0.1875 0 0.34375 0.21875 0 0.375 0.21875 0 0.34375 0.21875 0 0.375 0.21875 0 0.34375 0.25 0 0.375 0.25 0 0.3125 0.21875 0 0.34375 0.21875 0 0.3125 0.25 0 0.34375 0.25 0 0.25 0.1875 0 0.28125 0.1875 0 0.25 0.21875 0 0.28125 0.21875 0 0.28125 0.1875 0 0.3125 0.1875 0 0.28125 0.21875 0 0.3125 0.21875 0 0.28125 0.21875 0 0.3125 0.21875 0 0.28125 0.25 0 0.3125 0.25 0 0.25 0.21875 0 0.28125 0.21875 0 0.25 0.25 0 0.28125 0.25 0 0.25 0.25 0 0.28125 0.25 0 0.25 0.28125 0 0.28125 0.28125 0 0.28125 0.25 0 0.3125 0.25 0 0.28125 0.28125 0 0.3125 0.28125 0 0.28125 0.28125 0 0.3125 0.28125 0 0.28125 0.3125 0 0.3125 0.3125 0 0.25 0.28125 0 0.28125 0.28125 0 0.25 0.3125 0 0.28125 0.3125 0 0.3125 0.25 0 0.34375 0.25 0 0.3125 0.28125 0 0.34375 0.28125 0 0.34375 0.25 0 0.375 0.25 0 0.34375 0.28125 0 0.375 0.28125 0 0.34375 0.28125 0 0.375 0.28125 0 0.34375 0.3125 0 0.375 0.3125 0 0.3125 0.28125 0 0.34375 0.28125 0 0.3125 0.3125 0 0.34375 0.3125 0 0.3125 0.3125 0 0.34375 0.3125 0 0.3125 0.34375 0 0.34375 0.34375 0 0.34375 0.3125 0 0.375 0.3125 0 0.34375 0.34375 0 0.375 0.34375 0 0.34375 0.34375 0 0.375 0.34375 0 0.34375 0.375 0 0.375 0.375 0 0.3125 0.34375 0 0.34375 0.34375 0 0.3125 0.375 0 0.34375 0.375 0 0.25 0.3125 0 0.28125 0.3125 0 0.25 0.34375 0 0.28125 0.34375 0 0.28125 0.3125 0 0.3125 0.3125 0 0.28125 0.34375 0 0.3125 0.34375 0 0.28125 0.34375 0 0.3125 0.34375 0 0.28125 0.375 0 0.3125 0.375 0 0.25 0.34375 0 0.28125 0.34375 0 0.25 0.375 0 0.28125 0.375 0 0.375 0.25 0 0.40625 0.25 0 0.375 0.28125 0 0.40625 0.28125 0 0.40625 0.25 0 0.4375 0.25 0 0.40625 0.28125 0 0.4375 0.28125 0 0.40625 0.28125 0 0.4375 0.28125 0 0.40625 0.3125 0 0.4375 0.3125 0 0.375 0.28125 0 0.40625 0.28125 0 0.375 0.3125 0 0.40625 0.3125 0 0.4375 0.25 0 0.46875 0.25 0 0.4375 0.28125 0 0.46875 0.28125 0 0.46875 0.25 0 0.5 0.25 0 0.46875 0.28125 0 0.5 0.28125 0 0.46875 0.28125 0 0.5 0.28125 0 0.46875 0.3125 0
[...]
            <PointData>
                <DataArray Name="u" type="Float64" format="ascii">0 0 0 0.00493483 0 0 0.00493483 0.00032161 0.00493483 0.00032161 0.00032161 0.00221127 0 0.00493483 0 0.00032161 0 0 0.00032161 0.00222901 0 0 0.00222901 0.00147604 0.00222901 0.00147604 0.0013291 -0.00170695 0.00032161 0.00222901 0.00221127 0.0013291 0.00221127 0.0013291 0.0013291 -0.00030272 0.0013291 -0.00170695 -0.00030272 0.00619537 -0.00030272 0.00619537 0.00619537 0.0385461 0.0013291 -0.00030272 -0.00170695 0.00619537 0 0.00032161 0 0.00222901 0.00032161 0.00221127 0.00222901 0.0013291 0.00222901 0.0013291 0.00147604 -0.00170695 0 0.00222901 0 0.00147604 0 0 0.00147604 -0.00267005 0 0 -0.00267005 -0.00340359 -0.00267005 -0.00340359 0.00512796 0.00869816 0.00147604 -0.00267005 -0.00170695 0.00512796 0 0 -0.00340359 0.0030257 0 0 0.0030257 0.00263399 0.0030257 0.00263399 0.0297246 0.036007 -0.00340359 0.0030257 0.00869816 0.0297246 0.00869816 0.0297246 0.0569574 0.0885503 0.0297246 0.036007 0.0885503 0.119604 0.0885503 0.119604 0.190269 0.248365 0.0569574 0.0885503 0.134798 0.190269 -0.00170695 0.00512796 0.00619537 0.0338725 0.00512796 0.00869816 0.0338725 0.0569574 0.0338725 0.0569574 0.0791075 0.134798 0.00619537 0.0338725 0.0385461 0.0791075 0.0385461 0.0791075 0.0791075 0.152883 0.0791075 0.134798 0.152883 0.232992 0.152883 0.232992 0.232992 0.348578 0.0791075 0.152883 0.134798 0.232992 0.134798 0.190269 0.232992 0.323304 0.190269 0.248365 0.323304 0.388363 0.323304 0.388363 0.452584 0.538417 0.232992 0.323304 0.348578 0.452584 0.348578 0.452584 0.452584 0.562164 0.452584 0.538417 0.562164 0.653587 0.562164 0.653587 0.653587 0.749858 0.452584 0.562164 0.538417 0.653587 0.134798 0.232992 0.190269 0.323304 0.232992 0.348578 0.323304 0.452584 0.323304 0.452584 0.388363 0.538417 0.190269 0.323304 0.248365 0.388363 0 0.00147604 0 -0.00267005 0.00147604 -0.00170695 -0.00267005 0.00512796 -0.00267005 0.00512796 -0.00340359 0.00869816 0 -0.00267005 0 -0.00340359 -0.00170695 0.00619537 0.00512796 0.0338725 0.00619537 0.0385461 0.0338725 0.0791075 0.0338725 0.0791075 0.0569574 0.134798 0.00512796 0.0338725 0.00869816 0.0569574 0.00869816 0.0569574 0.0297246 0.0885503 0.0569574 0.134798 0.0885503 0.190269 0.0885503 0.190269 0.119604 0.248365 0.0297246 0.0885503 0.036007 0.119604 0 -0.00340359 0 0.0030257 -0.00340359 0.00869816 0.0030257 0.0297246 0.0030257 0.0297246 0.00263399 0.036007 0 0.0030257 0 0.00263399 0 0 0.00263399 0.00902146 0 0 0.00902146 -0.000828147 0.00902146 -0.000828147 0.0516151 0.0439402 0.00263399 0.00902146 0.036007 0.0516151 0 0 -0.000828147 0.00501422 0 0 0.00501422 -0.00986914 0.00501422 -0.00986914 0.0329726 0.0207058 -0.000828147 0.00501422 0.0439402 0.0329726 0.0439402 0.0329726 0.155933 0.133746 0.0329726 0.0207058 0.133746 0.111967 0.133746 0.111967 0.296148 0.247937 0.155933 0.133746 0.299088 0.296148 0.036007 0.0516151 0.119604 0.141011 0.0516151 0.0439402 0.141011 0.155933 0.141011 0.155933 0.284619 0.299088 0.119604 0.141011 0.248365 0.284619 0 0 -0.00986914 -0.00515561 0 0 -0.00515561 0.00725571 -0.00515561 0.00725571 -0.0182328 -0.0135609 -0.00986914 -0.00515561 0.0207058 -0.0182328 0 0 0.00725571 0.00253506 0 0 0.00253506 -0.00173123 0.00253506 -0.00173123 0.00613244 0.00369819 0.00725571 0.00253506 -0.0135609 0.00613244 -0.0135609 0.00613244 -0.007687 -0.0165678 0.00613244 0.00369819 -0.0165678 0.00164659 -0.0165678 0.00164659 0.0137374 -0.011639 -0.007687 -0.0165678 0.113988 0.0137374 0.0207058 -0.0182328 0.111967 0.0635264 -0.0182328 -0.0135609 0.0635264 -0.007687 0.0635264 -0.007687 0.203901 0.113988 0.111967 0.0635264 0.247937 0.203901 0.247937 0.203901 0.422793 0.344666 0.203901 0.113988 0.344666 0.272327 0.344666 0.272327 0.487461 0.40049 0.422793 0.344666 0.568978 0.487461 0.113988 0.0137374 0.272327 0.137602 0.0137374 -0.011639 0.137602 0.0224183 0.137602 0.0224183 0.286744 0.121552 0.272327 0.137602 0.40049 0.286744 0.40049 0.286744 0.500864 0.396875 0.286744 0.121552 0.396875 0.234799 0.396875 0.234799 0.475724 0.322303 0.500864 0.396875 0.59264 0.475724 0.568978 0.487461 0.690785 0.618446 0.487461 0.40049 0.618446 0.500864 0.618446 0.500864 0.714277 0.59264 0.690785 0.618446 0.768769 0.714277 0.248365 0.284619 0.388363 0.447034 0.284619 0.299088 0.447034 0.462135 0.447034 0.462135 0.584295 0.614908 0.388363 0.447034 0.538417 0.584295 0.299088 0.296148 0.462135 0.457917 0.296148 0.247937 0.457917 0.422793 0.457917 0.422793 0.59547 0.568978 0.462135 0.457917 0.614908 0.59547 0.614908 0.59547 0.742819 0.727177 0.59547 0.568978 0.727177 0.690785 0.727177 0.690785 0.822421 0.768769 0.742819 0.727177 0.827321 0.822421 0.538417 0.584295 0.653587 0.709634 0.584295 0.614908 0.709634 0.742819 0.709634 0.742819 0.799334 0.827321 0.653587 0.709634 0.749858 0.799334 0.749858 0.799334 0.799334 0.877484 0.799334 0.827321 0.877484 0.891376 0.877484 0.891376 0.891376 0.911715 0.799334 0.877484 0.827321 0.891376 0.827321 0.822421 0.891376 0.900133 0.822421 0.768769 0.900133 0.839327 0.900133 0.839327 0.91337 0.861069 0.891376 0.900133 0.911715 0.91337 0.911715 0.91337 0.91337 0.922882 0.91337 0.861069 0.922882 0.861254 0.922882 0.861254 0.861254 0.818833 0.91337 0.922882 0.861069 0.861254 0.827321 0.891376 0.822421 0.900133 0.891376 0.911715 0.900133 0.91337 0.900133 0.91337 0.839327 0.861069 0.822421 0.900133 0.768769 0.839327 0.768769 0.714277 0.839327 0.77449 0.714277 0.59264 0.77449 0.653596 0.77449 0.653596 0.797759 0.686168 0.839327 0.77449 0.861069 0.797759 0.59264 0.475724 0.653596 0.522917 0.475724 0.322303 0.522917 0.376547 0.522917 0.376547 0.552855 0.396628 0.653596 0.522917 0.686168 0.552855 0.686168 0.552855 0.677502 0.545672 0.552855 0.396628 0.545672 0.394055 0.545672 0.394055 0.507811 0.361191 0.677502 0.545672 0.645558 0.507811 0.861069 0.797759 0.861254 0.794233 0.797759 0.686168 0.794233 0.677502 0.794233 0.677502 0.748642 0.645558 0.861254 0.794233 0.818833 0.748642 0.818833 0.748642 0.748642 0.67153 0.748642 0.645558 0.67153 0.579073 0.67153 0.579073 0.579073 0.473876 0.748642 0.67153 0.645558 0.579073 0.645558 0.507811 0.579073 0.444915 0.507811 0.361191 0.444915 0.304236 0.444915 0.304236 0.355338 0.23741 0.579073 0.444915 0.473876 0.355338 0.473876 0.355338 0.355338 0.260446 0.355338 0.23741 0.260446 0.164146 0.260446 0.164146 0.164146 0.0910999 0.355338 0.260446 0.23741 0.164146 0.645558 0.579073 0.507811 0.444915 0.579073 0.473876 0.444915 0.355338 0.444915 0.355338 0.304236 0.23741 0.507811 0.444915 0.361191 0.304236 0.768769 0.839327 0.714277 0.77449 0.839327 0.861069 0.77449 0.797759 0.77449 0.797759 0.653596 0.686168 0.714277 0.77449 0.59264 0.653596 0.861069 0.861254 0.797759 0.794233 0.861254 0.818833 0.794233 0.748642 0.794233 0.748642 0.677502 0.645558 0.797759 0.794233 0.686168 0.677502 0.686168 0.677502 0.552855 0.545672 0.677502 0.645558 0.545672 0.507811 0.545672 0.507811 0.394055 0.361191 0.552855 0.545672 0.396628 0.394055 0.59264 0.653596 0.475724 0.522917 0.653596 0.686168 0.522917 0.552855 0.522917 0.552855 0.376547 0.396628 0.475724 0.522917 0.322303 0.376547 0 0.00263399 0 0.00902146 0.00263399 0.036007 0.00902146 0.0516151 0.00902146 0.0516151 -0.000828147 0.0439402 0 0.00902146 0 -0.000828147 0.036007 0.119604 0.0516151 0.141011 0.119604 0.248365 0.141011 0.284619 0.141011 0.284619 0.155933 0.299088 0.0516151 0.141011 0.0439402 0.155933 0.0439402 0.155933 0.0329726 0.133746 0.155933 0.299088 0.133746 0.296148 0.133746 0.296148 0.111967 0.247937 0.0329726 0.133746 0.0207058 0.111967 0 -0.000828147 0 0.00501422 -0.000828147 0.0439402 0.00501422 0.0329726 0.00501422 0.0329726 -0.00986914 0.0207058 0 0.00501422 0 -0.00986914 0.248365 0.388363 0.284619 0.447034 0.388363 0.538417 0.447034 0.584295 0.447034 0.584295 0.462135 0.614908 0.284619 0.447034 0.299088 0.462135 0.538417 0.653587 0.584295 0.709634 0.653587 0.749858 0.709634 0.799334 0.709634 0.799334 0.742819 0.827321 0.584295 0.709634 0.614908 0.742819 0.614908 0.742819 0.59547 0.727177 0.742819 0.827321 0.727177 0.822421 0.727177 0.822421 0.690785 0.768769 0.59547 0.727177 0.568978 0.690785 0.299088 0.462135 0.296148 0.457917 0.462135 0.614908 0.457917 0.59547 0.457917 0.59547 0.422793 0.568978 0.296148 0.457917 0.247937 0.422793 0.247937 0.422793 0.203901 0.344666 0.422793 0.568978 0.344666 0.487461 0.344666 0.487461 0.272327 0.40049 0.203901 0.344666 0.113988 0.272327 0.568978 0.690785 0.487461 0.618446 0.690785 0.768769 0.618446 0.714277 0.618446 0.714277 0.500864 0.59264 0.487461 0.618446 0.40049 0.500864 0.40049 0.500864 0.286744 0.396875 0.500864 0.59264 0.396875 0.475724 0.396875 0.475724 0.234799 0.322303 0.286744 0.396875 0.121552 0.234799 0.113988 0.272327 0.0137374 0.137602 0.272327 0.40049 0.137602 0.286744 0.137602 0.286744 0.0224183 0.121552 0.0137374 0.137602 -0.011639 0.0224183 0 -0.00986914 0 -0.00515561 -0.00986914 0.0207058 -0.00515561 -0.0182328 -0.00515561 -0.0182328 0.00725571 -0.0135609 0 -0.00515561 0 0.00725571 0.0207058 0.111967 -0.0182328 0.0635264 0.111967 0.247937 0.0635264 0.203901 0.0635264 0.203901 -0.007687 0.113988 -0.0182328 0.0635264 -0.0135609 -0.007687 -0.0135609 -0.007687 0.00613244 -0.0165678 -0.007687 0.113988 -0.0165678 0.0137374 -0.0165678 0.0137374 0.00164659 -0.011639 0.00613244 -0.0165678 0.00369819 0.00164659 0 0.00725571 0 0.00253506 0.00725571 -0.0135609 0.00253506 0.00613244 0.00253506 0.00613244 -0.00173123 0.00369819 0 0.00253506 0 -0.00173123 0 0 -0.00173123 0.000218953 0 0 0.000218953 0.00136456 0.000218953 0.00136456 -0.00131415 -0.000659619 -0.00173123 0.000218953 0.00369819 -0.00131415 0 0 0.00136456 0.000670771 0 0 0.000670771 8.29643e-05 0.000670771 8.29643e-05 0.000151605 6.97485e-05 0.00136456 0.000670771 -0.000659619 0.000151605 -0.000659619 0.000151605 0.000129414 -0.000140895 0.000151605 6.97485e-05 -0.000140895 8.03242e-05 -0.000140895 8.03242e-05 -8.94935e-05 -0.000148403 0.000129414 -0.000140895 0.00114893 -8.94935e-05 0.00369819 -0.00131415 0.00164659 0.00340445 -0.00131415 -0.000659619 0.00340445 0.000129414 0.00340445 0.000129414 -0.00158916 0.00114893 0.00164659 0.00340445 -0.011639 -0.00158916 0 0 8.29643e-05 -2.08658e-05 0 0 -2.08658e-05 -3.04086e-06 -2.08658e-05 -3.04086e-06 -7.38402e-06 -1.91262e-06 8.29643e-05 -2.08658e-05 6.97485e-05 -7.38402e-06 0 0 -3.04086e-06 1.09735e-06 0 0 1.09735e-06 -7.33022e-09 1.09735e-06 -7.33022e-09 5.95954e-07 -5.27488e-08 -3.04086e-06 1.09735e-06 -1.91262e-06 5.95954e-07 -1.91262e-06 5.95954e-07 -7.28531e-06 1.14144e-07 5.95954e-07 -5.27488e-08 1.14144e-07 4.05965e-07 1.14144e-07 4.05965e-07 -2.33282e-06 -3.64324e-08 -7.28531e-06 1.14144e-07 8.16168e-06 -2.33282e-06 6.97485e-05 -7.38402e-06 8.03242e-05 1.59203e-05 -7.38402e-06 -1.91262e-06 1.59203e-05 -7.28531e-06 1.59203e-05 -7.28531e-06 1.64874e-05 8.16168e-06 8.03242e-05 1.59203e-05 -0.000148403 1.64874e-05 -0.000148403 1.64874e-05 9.18791e-05 -6.15305e-05 1.64874e-05 8.16168e-06 -6.15305e-05 2.1568e-06 -6.15305e-05 2.1568e-06 4.81999e-05 -2.16271e-05 9.18791e-05 -6.15305e-05 0.000292625 4.81999e-05 8.16168e-06 -2.33282e-06 2.1568e-06 3.13919e-06 -2.33282e-06 -3.64324e-08 3.13919e-06 -7.33488e-07 3.13919e-06 -7.33488e-07 1.00996e-06 9.6647e-07 2.1568e-06 3.13919e-06 -2.16271e-05 1.00996e-06 -2.16271e-05 1.00996e-06 6.1861e-07 -7.04624e-06 1.00996e-06 9.6647e-07 -7.04624e-06 1.30929e-06 -7.04624e-06 1.30929e-06 -1.09555e-05 -6.69532e-07 6.1861e-07 -7.04624e-06 5.30653e-05 -1.09555e-05 0.000292625 4.81999e-05 -0.000339737 0.000139214 4.81999e-05 -2.16271e-05 0.000139214 6.1861e-07 0.000139214 6.1861e-07 6.4201e-05 5.30653e-05 -0.000339737 0.000139214 -0.0012649 6.4201e-05 -0.011639 -0.00158916 0.0224183 -0.00644028 -0.00158916 0.00114893 -0.00644028 -0.000983405 -0.00644028 -0.000983405 0.0167065 -0.00513974 0.0224183 -0.00644028 0.121552 0.0167065 0.00114893 -8.94935e-05 -0.000983405 0.000897418 -8.94935e-05 -0.000148403 0.000897418 9.18791e-05 0.000897418 9.18791e-05 -0.00132443 0.000292625 -0.000983405 0.000897418 -0.00513974 -0.00132443 -0.00513974 -0.00132443 0.00724526 -0.0025646 -0.00132443 0.000292625 -0.0025646 -0.000339737 -0.0025646 -0.000339737 -0.000292137 -0.0012649 0.00724526 -0.0025646 0.0320045 -0.000292137 0.121552 0.0167065 0.234799 0.0771032 0.0167065 -0.00513974 0.0771032 0.00724526 0.0771032 0.00724526 0.143704 0.0320045 0.234799 0.0771032 0.322303 0.143704 0 0 -7.33022e-09 -4.50894e-08 0 0 -4.50894e-08 8.77798e-09 -4.50894e-08 8.77798e-09 -1.29841e-08 6.57789e-09 -7.33022e-09 -4.50894e-08 -5.27488e-08 -1.29841e-08 0 0 8.77798e-09 3.38966e-11 0 0 3.38966e-11 -3.70037e-10 3.38966e-11 -3.70037e-10 -1.37808e-09 6.68117e-11 8.77798e-09 3.38966e-11 6.57789e-09 -1.37808e-09 6.57789e-09 -1.37808e-09 1.02583e-09 5.03891e-09 -1.37808e-09 6.68117e-11 5.03891e-09 -1.47093e-09 5.03891e-09 -1.47093e-09 6.2047e-10 1.68942e-09 1.02583e-09 5.03891e-09 -3.30966e-08 6.2047e-10 -5.27488e-08 -1.29841e-08 4.05965e-07 -9.63943e-08 -1.29841e-08 6.57789e-09 -9.63943e-08 1.02583e-09 -9.63943e-08 1.02583e-09 1.43852e-07 -3.30966e-08 4.05965e-07 -9.63943e-08 -3.64324e-08 1.43852e-07 0 0 -3.70037e-10 8.88147e-11 0 0 8.88147e-11 -8.13761e-12 8.88147e-11 -8.13761e-12 6.01413e-11 -2.42901e-11 -3.70037e-10 8.88147e-11 6.68117e-11 6.01413e-11 0 0 -8.13761e-12 -1.04976e-12 0 0 -1.04976e-12 0 -1.04976e-12 0 4.41246e-12 0 -8.13761e-12 -1.04976e-12 -2.42901e-11 4.41246e-12 -2.42901e-11 4.41246e-12 2.96819e-11 -1.60882e-11 4.41246e-12 0 -1.60882e-11 0 -1.60882e-11 0 5.69409e-12 0 2.96819e-11 -1.60882e-11 7.26575e-11 5.69409e-12 6.68117e-11 6.01413e-11 -1.47093e-09 1.61966e-10 6.01413e-11 -2.42901e-11 1.61966e-10 2.96819e-11 1.61966e-10 2.96819e-11 -5.31585e-10 7.26575e-11 -1.47093e-09 1.61966e-10 1.68942e-09 -5.31585e-10 1.68942e-09 -5.31585e-10 6.22712e-10 4.23284e-10 -5.31585e-10 7.26575e-11 4.23284e-10 -1.62095e-10 4.23284e-10 -1.62095e-10 5.91533e-10 3.12559e-11 6.22712e-10 4.23284e-10 -3.92343e-09 5.91533e-10 7.26575e-11 5.69409e-12 -1.62095e-10 2.87068e-11 5.69409e-12 0 2.87068e-11 0 2.87068e-11 0 -3.68963e-11 0 -1.62095e-10 2.87068e-11 3.12559e-11 -3.68963e-11 3.12559e-11 -3.68963e-11 3.07204e-10 -4.75288e-11 -3.68963e-11 0 -4.75288e-11 0 -4.75288e-11 0 2.70364e-11 0 3.07204e-10 -4.75288e-11 2.71783e-10 2.70364e-11 -3.92343e-09 5.91533e-10 -5.52957e-10 -8.85908e-10 5.91533e-10 3.12559e-11 -8.85908e-10 3.07204e-10 -8.85908e-10 3.07204e-10 -2.23451e-09 2.71783e-10 -5.52957e-10 -8.85908e-10 7.87443e-09 -2.23451e-09 -3.64324e-08 1.43852e-07 -7.33488e-07 -1.21085e-08 1.43852e-07 -3.30966e-08 -1.21085e-08 4.37288e-08 -1.21085e-08 4.37288e-08 -2.73945e-07 1.5732e-08 -7.33488e-07 -1.21085e-08 9.6647e-07 -2.73945e-07 -3.30966e-08 6.2047e-10 4.37288e-08 -1.08475e-08 6.2047e-10 1.68942e-09 -1.08475e-08 6.22712e-10 -1.08475e-08 6.22712e-10 1.07494e-08 -3.92343e-09 4.37288e-08 -1.08475e-08 1.5732e-08 1.07494e-08 1.5732e-08 1.07494e-08 -8.93558e-08 1.92105e-08 1.07494e-08 -3.92343e-09 1.92105e-08 -5.52957e-10 1.92105e-08 -5.52957e-10 -1.92242e-09 7.87443e-09 -8.93558e-08 1.92105e-08 -1.36789e-07 -1.92242e-09 9.6647e-07 -2.73945e-07 1.30929e-06 8.15413e-08 -2.73945e-07 1.5732e-08 8.15413e-08 -8.93558e-08 8.15413e-08 -8.93558e-08 7.12595e-07 -1.36789e-07 1.30929e-06 8.15413e-08 -6.69532e-07 7.12595e-07 -6.69532e-07 7.12595e-07 -4.67578e-06 1.06103e-06 7.12595e-07 -1.36789e-07 1.06103e-06 -5.31626e-09 1.06103e-06 -5.31626e-09 3.05341e-07 2.61161e-07 -4.67578e-06 1.06103e-06 -6.77483e-06 3.05341e-07 -1.36789e-07 -1.92242e-09 -5.31626e-09 -5.26558e-08 -1.92242e-09 7.87443e-09 -5.26558e-08 1.43999e-08 -5.26558e-08 1.43999e-08 -7.58247e-08 6.45343e-09 -5.31626e-09 -5.26558e-08 2.61161e-07 -7.58247e-08 2.61161e-07 -7.58247e-08 2.85623e-07 -3.41879e-08 -7.58247e-08 6.45343e-09 -3.41879e-08 -4.84513e-09 -3.41879e-08 -4.84513e-09 -8.13611e-09 -1.73592e-09 2.85623e-07 -3.41879e-08 1.14476e-07 -8.13611e-09 -6.77483e-06 3.05341e-07 -4.02582e-06 -5.83784e-07 3.05341e-07 2.61161e-07 -5.83784e-07 2.85623e-07 -5.83784e-07 2.85623e-07 -3.61297e-07 1.14476e-07 -4.02582e-06 -5.83784e-07 -1.83388e-06 -3.61297e-07 7.87443e-09 -2.23451e-09 1.43999e-08 -1.38552e-09 -2.23451e-09 2.71783e-10 -1.38552e-09 -3.23613e-10 -1.38552e-09 -3.23613e-10 1.97644e-09 -8.74335e-10 1.43999e-08 -1.38552e-09 6.45343e-09 1.97644e-09 2.71783e-10 2.70364e-11 -3.23613e-10 1.57649e-10 2.70364e-11 0 1.57649e-10 0 1.57649e-10 0 1.55087e-10 0 -3.23613e-10 1.57649e-10 -8.74335e-10 1.55087e-10 -8.74335e-10 1.55087e-10 -4.78567e-10 1.2921e-11 1.55087e-10 0 1.2921e-11 0 1.2921e-11 0 -8.7021e-12 0 -4.78567e-10 1.2921e-11 -4.4132e-12 -8.7021e-12 6.45343e-09 1.97644e-09 -4.84513e-09 2.70078e-09 1.97644e-09 -8.74335e-10 2.70078e-09 -4.78567e-10 2.70078e-09 -4.78567e-10 4.26775e-10 -4.4132e-12 -4.84513e-09 2.70078e-09 -1.73592e-09 4.26775e-10 -1.73592e-09 4.26775e-10 3.14492e-09 -1.8467e-10 4.26775e-10 -4.4132e-12 -1.8467e-10 -1.10589e-10 -1.8467e-10 -1.10589e-10 4.53129e-10 -1.63202e-10 3.14492e-09 -1.8467e-10 6.47555e-10 4.53129e-10 -4.4132e-12 -8.7021e-12 -1.10589e-10 4.67684e-11 -8.7021e-12 0 4.67684e-11 0 4.67684e-11 0 2.51779e-11 0 -1.10589e-10 4.67684e-11 -1.63202e-10 2.51779e-11 -1.63202e-10 2.51779e-11 -1.26126e-11 -1.01551e-11 2.51779e-11 0 -1.01551e-11 0 -1.01551e-11 0 -5.64396e-12 0 -1.26126e-11 -1.01551e-11 3.29679e-11 -5.64396e-12 6.47555e-10 4.53129e-10 -1.15815e-09 2.76644e-10 4.53129e-10 -1.63202e-10 2.76644e-10 -1.26126e-11 2.76644e-10 -1.26126e-11 -6.96606e-11 3.29679e-11 -1.15815e-09 2.76644e-10 -2.19639e-10 -6.96606e-11 -1.83388e-06 -3.61297e-07 -1.94256e-06 4.3576e-08 -3.61297e-07 1.14476e-07 4.3576e-08 5.57981e-08 4.3576e-08 5.57981e-08 -2.44118e-08 5.83961e-08 -1.94256e-06 4.3576e-08 -1.27767e-06 -2.44118e-08 1.14476e-07 -8.13611e-09 5.57981e-08 -1.75292e-08 -8.13611e-09 -1.73592e-09 -1.75292e-08 3.14492e-09 -1.75292e-08 3.14492e-09 -1.29737e-08 6.47555e-10 5.57981e-08 -1.75292e-08 5.83961e-08 -1.29737e-08 5.83961e-08 -1.29737e-08 2.0494e-08 3.06413e-10 -1.29737e-08 6.47555e-10 3.06413e-10 -1.15815e-09 3.06413e-10 -1.15815e-09 2.12903e-09 -2.19639e-10 2.0494e-08 3.06413e-10 -5.18967e-09 2.12903e-09 -1.27767e-06 -2.44118e-08 -1.69821e-07 -8.3475e-08 -2.44118e-08 5.83961e-08 -8.3475e-08 2.0494e-08 -8.3475e-08 2.0494e-08 -1.2572e-08 -5.18967e-09 -1.69821e-07 -8.3475e-08 9.29829e-08 -1.2572e-08 0.322303 0.143704 0.376547 0.199894 0.143704 0.0320045 0.199894 0.0621008 0.199894 0.0621008 0.225814 0.0853284 0.376547 0.199894 0.396628 0.225814 0.0320045 -0.000292137 0.0621008 0.00581781 -0.000292137 -0.0012649 0.00581781 -0.00191654 0.00581781 -0.00191654 0.0148758 -0.00123945 0.0621008 0.00581781 0.0853284 0.0148758 0.0853284 0.0148758 0.0916022 0.019732 0.0148758 -0.00123945 0.019732 7.41415e-05 0.019732 7.41415e-05 0.0186979 0.000435562 0.0916022 0.019732 0.0855272 0.0186979 0.396628 0.225814 0.394055 0.228006 0.225814 0.0853284 0.228006 0.0916022 0.228006 0.0916022 0.211193 0.0855272 0.394055 0.228006 0.361191 0.211193 -0.0012649 6.4201e-05 -0.00191654 -0.000227955 6.4201e-05 5.30653e-05 -0.000227955 0.000104489 -0.000227955 0.000104489 -0.000628066 8.38472e-05 -0.00191654 -0.000227955 -0.00123945 -0.000628066 5.30653e-05 -1.09555e-05 0.000104489 -2.49947e-06 -1.09555e-05 -6.69532e-07 -2.49947e-06 -4.67578e-06 -2.49947e-06 -4.67578e-06 1.95865e-05 -6.77483e-06 0.000104489 -2.49947e-06 8.38472e-05 1.95865e-05 8.38472e-05 1.95865e-05 1.25974e-05 2.82632e-05 1.95865e-05 -6.77483e-06 2.82632e-05 -4.02582e-06 2.82632e-05 -4.02582e-06 1.85269e-05 -1.83388e-06 1.25974e-05 2.82632e-05 -4.92436e-06 1.85269e-05 -0.00123945 -0.000628066 7.41415e-05 -0.000711425 -0.000628066 8.38472e-05 -0.000711425 1.25974e-05 -0.000711425 1.25974e-05 -0.000545886 -4.92436e-06 7.41415e-05 -0.000711425 0.000435562 -0.000545886 0.000435562 -0.000545886 0.000171688 -0.000393252 -0.000545886 -4.92436e-06 -0.000393252 1.18575e-05 -0.000393252 1.18575e-05 -0.000232868 8.48563e-06 0.000171688 -0.000393252 3.27022e-05 -0.000232868 -4.92436e-06 1.85269e-05 1.18575e-05 1.05414e-05 1.85269e-05 -1.83388e-06 1.05414e-05 -1.94256e-06 1.05414e-05 -1.94256e-06 6.73362e-06 -1.27767e-06 1.18575e-05 1.05414e-05 8.48563e-06 6.73362e-06 8.48563e-06 6.