<?xml version="1.0" encoding="UTF-8"?>
<VTKFile type="UnstructuredGrid" version="0.1" byte_order="LittleEndian" compressor="vtkZLibDataCompressor">
    <UnstructuredGrid>
        <Piece NumberOfPoints="4096" NumberOfCells="1024">
            <Points>
                <DataArray type="Float64" Name="Array" NumberOfComponents="3" format="ascii" RangeMin="0" RangeMax="1">0 0 0 0.03125 0 0 0 0.03125 0 0.03125 0.03125 0 0.03125 0 0 0.0625 0 0 0.03125 0.03125 0 0.0625 0.03125 0 0.03125 0.03125 0 0.0625 0.03125 0 0.03125 0.0625 0 0.0625 0.0625 0 0 0.03125 0 0.03125 0.03125 0 0 0.0625 0 0.03125 0.0625 0 0.0625 0 0 0.09375 0 0 0.0625 0.03125 0 0.09375 0.03125 0 0.09375 0 0 0.125 0 0 0.09375 0.03125 0 0.125 0.03125 0 0.09375 0.03125 0 0.125 0.03125 0 0.09375 0.0625 0 0.125 0.0625 0 0.0625 0.03125 0 0.09375 0.03125 0 0.0625 0.0625 0 0.09375 0.0625 0 0.0625 0.0625 0 0.09375 0.0625 0 0.0625 0.09375 0 0.09375 0.09375 0 0.09375 0.0625 0 0.125 0.0625 0 0.09375 0.09375 0 0.125 0.09375 0 0.09375 0.09375 0 0.125 0.09375 0 0.09375 0.125 0 0.125 0.125 0 0.0625 0.09375 0 0.09375 0.09375 0 0.0625 0.125 0 0.09375 0.125 0 0 0.0625 0 0.03125 0.0625 0 0 0.09375 0 0.03125 0.09375 0 0.03125 0.0625 0 0.0625 0.0625 0 0.03125 0.09375 0 0.0625 0.09375 0 0.03125 0.09375 0 0.0625 0.09375 0 0.03125 0.125 0 0.0625 0.125 0 0 0.09375 0 0.03125 0.09375 0 0 0.125 0 0.03125 0.125 0 0.125 0 0 0.15625 0 0 0.125 0.03125 0 0.15625 0.03125 0 0.15625 0 0 0.1875 0 0 0.15625 0.03125 0 0.1875 0.03125 0 0.15625 0.03125 0 0.1875 0.03125 0 0.15625 0.0625 0 0.1875 0.0625 0 0.125 0.03125 0 0.15625 0.03125 0 0.125 0.0625 0 0.15625 0.0625 0 0.1875 0 0 0.21875 0 0 0.1875 0.03125 0 0.21875 0.03125 0 0.21875 0 0 0.25 0 0 0.21875 0.03125 0 0.25 0.03125 0 0.21875 0.03125 0 0.25 0.03125 0 0.21875 0.0625 0 0.25 0.0625 0 0.1875 0.03125 0 0.21875 0.03125 0 0.1875 0.0625 0 0.21875 0.0625 0 0.1875 0.0625 0 0.21875 0.0625 0 0.1875 0.09375 0 0.21875 0.09375 0 0.21875 0.0625 0 0.25 0.0625 0 0.21875 0.09375 0 0.25 0.09375 0 0.21875 0.09375 0 0.25 0.09375 0 0.21875 0.125 0 0.25 0.125 0 0.1875 0.09375 0 0.21875 0.09375 0 0.1875 0.125 0 0.21875 0.125 0 0.125 0.0625 0 0.15625 0.0625 0 0.125 0.09375 0 0.15625 0.09375 0 0.15625 0.0625 0 0.1875 0.0625 0 0.15625 0.09375 0 0.1875 0.09375 0 0.15625 0.09375 0 0.1875 0.09375 0 0.15625 0.125 0 0.1875 0.125 0 0.125 0.09375 0 0.15625 0.09375 0 0.125 0.125 0 0.15625 0.125 0 0.125 0.125 0 0.15625 0.125 0 0.125 0.15625 0 0.15625 0.15625 0 0.15625 0.125 0 0.1875 0.125 0 0.15625 0.15625 0 0.1875 0.15625 0 0.15625 0.15625 0 0.1875 0.15625 0 0.15625 0.1875 0 0.1875 0.1875 0 0.125 0.15625 0 0.15625 0.15625 0 0.125 0.1875 0 0.15625 0.1875 0 0.1875 0.125 0 0.21875 0.125 0 0.1875 0.15625 0 0.21875 0.15625 0 0.21875 0.125 0 0.25 0.125 0 0.21875 0.15625 0 0.25 0.15625 0 0.21875 0.15625 0 0.25 0.15625 0 0.21875 0.1875 0 0.25 0.1875 0 0.1875 0.15625 0 0.21875 0.15625 0 0.1875 0.1875 0 0.21875 0.1875 0 0.1875 0.1875 0 0.21875 0.1875 0 0.1875 0.21875 0 0.21875 0.21875 0 0.21875 0.1875 0 0.25 0.1875 0 0.21875 0.21875 0 0.25 0.21875 0 0.21875 0.21875 0 0.25 0.21875 0 0.21875 0.25 0 0.25 0.25 0 0.1875 0.21875 0 0.21875 0.21875 0 0.1875 0.25 0 0.21875 0.25 0 0.125 0.1875 0 0.15625 0.1875 0 0.125 0.21875 0 0.15625 0.21875 0 0.15625 0.1875 0 0.1875 0.1875 0 0.15625 0.21875 0 0.1875 0.21875 0 0.15625 0.21875 0 0.1875 0.21875 0 0.15625 0.25 0 0.1875 0.25 0 0.125 0.21875 0 0.15625 0.21875 0 0.125 0.25 0 0.15625 0.25 0 0 0.125 0 0.03125 0.125 0 0 0.15625 0 0.03125 0.15625 0 0.03125 0.125 0 0.0625 0.125 0 0.03125 0.15625 0 0.0625 0.15625 0 0.03125 0.15625 0 0.0625 0.15625 0 0.03125 0.1875 0 0.0625 0.1875 0 0 0.15625 0 0.03125 0.15625 0 0 0.1875 0 0.03125 0.1875 0 0.0625 0.125 0 0.09375 0.125 0 0.0625 0.15625 0 0.09375 0.15625 0 0.09375 0.125 0 0.125 0.125 0 0.09375 0.15625 0 0.125 0.15625 0 0.09375 0.15625 0 0.125 0.15625 0 0.09375 0.1875 0 0.125 0.1875 0 0.0625 0.15625 0 0.09375 0.15625 0 0.0625 0.1875 0 0.09375 0.1875 0 0.0625 0.1875 0 0.09375 0.1875 0 0.0625 0.21875 0 0.09375 0.21875 0 0.09375 0.1875 0 0.125 0.1875 0 0.09375 0.21875 0 0.125 0.21875 0 0.09375 0.21875 0 0.125 0.21875 0 0.09375 0.25 0 0.125 0.25 0 0.0625 0.21875 0 0.09375 0.21875 0 0.0625 0.25 0 0.09375 0.25 0 0 0.1875 0 0.03125 0.1875 0 0 0.21875 0 0.03125 0.21875 0 0.03125 0.1875 0 0.0625 0.1875 0 0.03125 0.21875 0 0.0625 0.21875 0 0.03125 0.21875 0 0.0625 0.21875 0 0.03125 0.25 0 0.0625 0.25 0 0 0.21875 0 0.03125 0.21875 0 0 0.25 0 0.03125 0.25 0 0.25 0 0 0.28125 0 0 0.25 0.03125 0 0.28125 0.03125 0 0.28125 0 0 0.3125 0 0 0.28125 0.03125 0 0.3125 0.03125 0 0.28125 0.03125 0 0.3125 0.03125 0 0.28125 0.0625 0 0.3125 0.0625 0 0.25 0.03125 0 0.28125 0.03125 0 0.25 0.0625 0 0.28125 0.0625 0 0.3125 0 0 0.34375 0 0 0.3125 0.03125 0 0.34375 0.03125 0 0.34375 0 0 0.375 0 0 0.34375 0.03125 0 0.375 0.03125 0 0.34375 0.03125 0 0.375 0.03125 0 0.34375 0.0625 0 0.375 0.0625 0 0.3125 0.03125 0 0.34375 0.03125 0 0.3125 0.0625 0 0.34375 0.0625 0 0.3125 0.0625 0 0.34375 0.0625 0 0.3125 0.09375 0 0.34375 0.09375 0 0.34375 0.0625 0 0.375 0.0625 0 0.34375 0.09375 0 0.375 0.09375 0 0.34375 0.09375 0 0.375 0.09375 0 0.34375 0.125 0 0.375 0.125 0 0.3125 0.09375 0 0.34375 0.09375 0 0.3125 0.125 0 0.34375 0.125 0 0.25 0.0625 0 0.28125 0.0625 0 0.25 0.09375 0 0.28125 0.09375 0 0.28125 0.0625 0 0.3125 0.0625 0 0.28125 0.09375 0 0.3125 0.09375 0 0.28125 0.09375 0 0.3125 0.09375 0 0.28125 0.125 0 0.3125 0.125 0 0.25 0.09375 0 0.28125 0.09375 0 0.25 0.125 0 0.28125 0.125 0 0.375 0 0 0.40625 0 0 0.375 0.03125 0 0.40625 0.03125 0 0.40625 0 0 0.4375 0 0 0.40625 0.03125 0 0.4375 0.03125 0 0.40625 0.03125 0 0.4375 0.03125 0 0.40625 0.0625 0 0.4375 0.0625 0 0.375 0.03125 0 0.40625 0.03125 0 0.375 0.0625 0 0.40625 0.0625 0 0.4375 0 0 0.46875 0 0 0.4375 0.03125 0 0.46875 0.03125 0 0.46875 0 0 0.5 0 0 0.46875 0.03125 0 0.5 0.03125 0 0.46875 0.03125 0 0.5 0.03125 0 0.46875 0.0625 0 0.5 0.0625 0 0.4375 0.03125 0 0.46875 0.03125 0 0.4375 0.0625 0 0.46875 0.0625 0 0.4375 0.0625 0 0.46875 0.0625 0 0.4375 0.09375 0 0.46875 0.09375 0 0.46875 0.0625 0 0.5 0.0625 0 0.46875 0.09375 0 0.5 0.09375 0 0.46875 0.09375 0 0.5 0.09375 0 0.46875 0.125 0 0.5 0.125 0 0.4375 0.09375 0 0.46875 0.09375 0 0.4375 0.125 0 0.46875 0.125 0 0.375 0.0625 0 0.40625 0.0625 0 0.375 0.09375 0 0.40625 0.09375 0 0.40625 0.0625 0 0.4375 0.0625 0 0.40625 0.09375 0 0.4375 0.09375 0 0.40625 0.09375 0 0.4375 0.09375 0 0.40625 0.125 0 0.4375 0.125 0 0.375 0.09375 0 0.40625 0.09375 0 0.375 0.125 0 0.40625 0.125 0 0.375 0.125 0 0.40625 0.125 0 0.375 0.15625 0 0.40625 0.15625 0 0.40625 0.125 0 0.4375 0.125 0 0.40625 0.15625 0 0.4375 0.15625 0 0.40625 0.15625 0 0.4375 0.15625 0 0.40625 0.1875 0 0.4375 0.1875 0 0.375 0.15625 0 0.40625 0.15625 0 0.375 0.1875 0 0.40625 0.1875 0 0.4375 0.125 0 0.46875 0.125 0 0.4375 0.15625 0 0.46875 0.15625 0 0.46875 0.125 0 0.5 0.125 0 0.46875 0.15625 0 0.5 0.15625 0 0.46875 0.15625 0 0.5 0.15625 0 0.46875 0.1875 0 0.5 0.1875 0 0.4375 0.15625 0 0.46875 0.15625 0 0.4375 0.1875 0 0.46875 0.1875 0 0.4375 0.1875 0 0.46875 0.1875 0 0.4375 0.21875 0 0.46875 0.21875 0 0.46875 0.1875 0 0.5 0.1875 0 0.46875 0.21875 0 0.5 0.21875 0 0.46875 0.21875 0 0.5 0.21875 0 0.46875 0.25 0 0.5 0.25 0 0.4375 0.21875 0 0.46875 0.21875 0 0.4375 0.25 0 0.46875 0.25 0 0.375 0.1875 0 0.40625 0.1875 0 0.375 0.21875 0 0.40625 0.21875 0 0.40625 0.1875 0 0.4375 0.1875 0 0.40625 0.21875 0 0.4375 0.21875 0 0.40625 0.21875 0 0.4375 0.21875 0 0.40625 0.25 0 0.4375 0.25 0 0.375 0.21875 0 0.40625 0.21875 0 0.375 0.25 0 0.40625 0.25 0 0.25 0.125 0 0.28125 0.125 0 0.25 0.15625 0 0.28125 0.15625 0 0.28125 0.125 0 0.3125 0.125 0 0.28125 0.15625 0 0.3125 0.15625 0 0.28125 0.15625 0 0.3125 0.15625 0 0.28125 0.1875 0 0.3125 0.1875 0 0.25 0.15625 0 0.28125 0.15625 0 0.25 0.1875 0 0.28125 0.1875 0 0.3125 0.125 0 0.34375 0.125 0 0.3125 0.15625 0 0.34375 0.15625 0 0.34375 0.125 0 0.375 0.125 0 0.34375 0.15625 0 0.375 0.15625 0 0.34375 0.15625 0 0.375 0.15625 0 0.34375 0.1875 0 0.375 0.1875 0 0.3125 0.15625 0 0.34375 0.15625 0 0.3125 0.1875 0 0.34375 0.1875 0 0.3125 0.1875 0 0.34375 0.1875 0 0.3125 0.21875 0 0.34375 0.21875 0 0.34375 0.1875 0 0.375 0.1875 0 0.34375 0.21875 0 0.375 0.21875 0 0.34375 0.21875 0 0.375 0.21875 0 0.34375 0.25 0 0.375 0.25 0 0.3125 0.21875 0 0.34375 0.21875 0 0.3125 0.25 0 0.34375 0.25 0 0.25 0.1875 0 0.28125 0.1875 0 0.25 0.21875 0 0.28125 0.21875 0 0.28125 0.1875 0 0.3125 0.1875 0 0.28125 0.21875 0 0.3125 0.21875 0 0.28125 0.21875 0 0.3125 0.21875 0 0.28125 0.25 0 0.3125 0.25 0 0.25 0.21875 0 0.28125 0.21875 0 0.25 0.25 0 0.28125 0.25 0 0.25 0.25 0 0.28125 0.25 0 0.25 0.28125 0 0.28125 0.28125 0 0.28125 0.25 0 0.3125 0.25 0 0.28125 0.28125 0 0.3125 0.28125 0 0.28125 0.28125 0 0.3125 0.28125 0 0.28125 0.3125 0 0.3125 0.3125 0 0.25 0.28125 0 0.28125 0.28125 0 0.25 0.3125 0 0.28125 0.3125 0 0.3125 0.25 0 0.34375 0.25 0 0.3125 0.28125 0 0.34375 0.28125 0 0.34375 0.25 0 0.375 0.25 0 0.34375 0.28125 0 0.375 0.28125 0 0.34375 0.28125 0 0.375 0.28125 0 0.34375 0.3125 0 0.375 0.3125 0 0.3125 0.28125 0 0.34375 0.28125 0 0.3125 0.3125 0 0.34375 0.3125 0 0.3125 0.3125 0 0.34375 0.3125 0 0.3125 0.34375 0 0.34375 0.34375 0 0.34375 0.3125 0 0.375 0.3125 0 0.34375 0.34375 0 0.375 0.34375 0 0.34375 0.34375 0 0.375 0.34375 0 0.34375 0.375 0 0.375 0.375 0 0.3125 0.34375 0 0.34375 0.34375 0 0.3125 0.375 0 0.34375 0.375 0 0.25 0.3125 0 0.28125 0.3125 0 0.25 0.34375 0 0.28125 0.34375 0 0.28125 0.3125 0 0.3125 0.3125 0 0.28125 0.34375 0 0.3125 0.34375 0 0.28125 0.34375 0 0.3125 0.34375 0 0.28125 0.375 0 0.3125 0.375 0 0.25 0.34375 0 0.28125 0.34375 0 0.25 0.375 0 0.28125 0.375 0 0.375 0.25 0 0.40625 0.25 0 0.375 0.28125 0 0.40625 0.28125 0 0.40625 0.25 0 0.4375 0.25 0 0.40625 0.28125 0 0.4375 0.28125 0 0.40625 0.28125 0 0.4375 0.28125 0 0.40625 0.3125 0 0.4375 0.3125 0 0.375 0.28125 0 0.40625 0.28125 0 0.375 0.3125 0 0.40625 0.3125 0 0.4375 0.25 0 0.46875 0.25 0 0.4375 0.28125 0 0.46875 0.28125 0 0.46875 0.25 0 0.5 0.25 0 0.46875 0.28125 0 0.5 0.28125 0 0.46875 0.28125 0 0.5 0.28125 0 0.46875 0.3125 0
[...]
            <PointData>
                <DataArray Name="u" type="Float64" format="ascii">0 0 0 -3.74131e-05 0 0 -3.74131e-05 0.000135498 -3.74131e-05 0.000135498 0.000135498 -0.000743605 0 -3.74131e-05 0 0.000135498 0 0 0.000135498 -2.43036e-05 0 0 -2.43036e-05 -0.000350449 -2.43036e-05 -0.000350449 0.000501148 0.000575101 0.000135498 -2.43036e-05 -0.000743605 0.000501148 -0.000743605 0.000501148 0.000501148 -0.000588524 0.000501148 0.000575101 -0.000588524 0.000270753 -0.000588524 0.000270753 0.000270753 -0.00115741 0.000501148 -0.000588524 0.000575101 0.000270753 0 0.000135498 0 -2.43036e-05 0.000135498 -0.000743605 -2.43036e-05 0.000501148 -2.43036e-05 0.000501148 -0.000350449 0.000575101 0 -2.43036e-05 0 -0.000350449 0 0 -0.000350449 0.000286287 0 0 0.000286287 0.00040018 0.000286287 0.00040018 -0.00110808 0.000973154 -0.000350449 0.000286287 0.000575101 -0.00110808 0 0 0.00040018 -0.000851045 0 0 -0.000851045 -0.000555595 -0.000851045 -0.000555595 0.00147974 -0.00147402 0.00040018 -0.000851045 0.000973154 0.00147974 0.000973154 0.00147974 -0.00199766 0.000797224 0.00147974 -0.00147402 0.000797224 0.00305765 0.000797224 0.00305765 -0.00258421 0.000315361 -0.00199766 0.000797224 -2.85979e-05 -0.00258421 0.000575101 -0.00110808 0.000270753 0.000536133 -0.00110808 0.000973154 0.000536133 -0.00199766 0.000536133 -0.00199766 0.000750736 -2.85979e-05 0.000270753 0.000536133 -0.00115741 0.000750736 -0.00115741 0.000750736 0.000750736 -0.00109069 0.000750736 -2.85979e-05 -0.00109069 0.00168513 -0.00109069 0.00168513 0.00168513 0.000224961 0.000750736 -0.00109069 -2.85979e-05 0.00168513 -2.85979e-05 -0.00258421 0.00168513 -7.61795e-05 -0.00258421 0.000315361 -7.61795e-05 -0.0036351 -7.61795e-05 -0.0036351 0.00108921 -0.000390178 0.00168513 -7.61795e-05 0.000224961 0.00108921 0.000224961 0.00108921 0.00108921 0.0020241 0.00108921 -0.000390178 0.0020241 0.0019514 0.0020241 0.0019514 0.0019514 0.00209758 0.00108921 0.0020241 -0.000390178 0.0019514 -2.85979e-05 0.00168513 -0.00258421 -7.61795e-05 0.00168513 0.000224961 -7.61795e-05 0.00108921 -7.61795e-05 0.00108921 -0.0036351 -0.000390178 -0.00258421 -7.61795e-05 0.000315361 -0.0036351 0 -0.000350449 0 0.000286287 -0.000350449 0.000575101 0.000286287 -0.00110808 0.000286287 -0.00110808 0.00040018 0.000973154 0 0.000286287 0 0.00040018 0.000575101 0.000270753 -0.00110808 0.000536133 0.000270753 -0.00115741 0.000536133 0.000750736 0.000536133 0.000750736 -0.00199766 -2.85979e-05 -0.00110808 0.000536133 0.000973154 -0.00199766 0.000973154 -0.00199766 0.00147974 0.000797224 -0.00199766 -2.85979e-05 0.000797224 -0.00258421 0.000797224 -0.00258421 0.00305765 0.000315361 0.00147974 0.000797224 -0.00147402 0.00305765 0 0.00040018 0 -0.000851045 0.00040018 0.000973154 -0.000851045 0.00147974 -0.000851045 0.00147974 -0.000555595 -0.00147402 0 -0.000851045 0 -0.000555595 0 0 -0.000555595 0.000966024 0 0 0.000966024 0.000179074 0.000966024 0.000179074 -0.00103195 0.00212452 -0.000555595 0.000966024 -0.00147402 -0.00103195 0 0 0.000179074 -0.00143724 0 0 -0.00143724 -0.000480901 -0.00143724 -0.000480901 0.00206999 -0.00175026 0.000179074 -0.00143724 0.00212452 0.00206999 0.00212452 0.00206999 -0.00257809 0.00158564 0.00206999 -0.00175026 0.00158564 0.00310736 0.00158564 0.00310736 -0.00360145 -3.80689e-05 -0.00257809 0.00158564 -0.00148924 -0.00360145 -0.00147402 -0.00103195 0.00305765 -0.00142743 -0.00103195 0.00212452 -0.00142743 -0.00257809 -0.00142743 -0.00257809 0.00223685 -0.00148924 0.00305765 -0.00142743 0.000315361 0.00223685 0 0 -0.000480901 0.00108172 0 0 0.00108172 2.02638e-06 0.00108172 2.02638e-06 -0.00232456 0.00229057 -0.000480901 0.00108172 -0.00175026 -0.00232456 0 0 2.02638e-06 -0.00172082 0 0 -0.00172082 -0.000703115 -0.00172082 -0.000703115 0.00253598 -0.00296665 2.02638e-06 -0.00172082 0.00229057 0.00253598 0.00229057 0.00253598 -0.00225765 0.00163588 0.00253598 -0.00296665 0.00163588 0.00458887 0.00163588 0.00458887 -0.00434245 0.000245788 -0.00225765 0.00163588 -0.000811906 -0.00434245 -0.00175026 -0.00232456 0.00310736 -0.000127754 -0.00232456 0.00229057 -0.000127754 -0.00225765 -0.000127754 -0.00225765 0.0029366 -0.000811906 0.00310736 -0.000127754 -3.80689e-05 0.0029366 -3.80689e-05 0.0029366 -0.00280413 -0.00207376 0.0029366 -0.000811906 -0.00207376 0.00152146 -0.00207376 0.00152146 0.00218725 -0.00124731 -0.00280413 -0.00207376 0.000770873 0.00218725 -0.000811906 -0.00434245 0.00152146 0.00121913 -0.00434245 0.000245788 0.00121913 -0.00285117 0.00121913 -0.00285117 -0.00120913 0.00130507 0.00152146 0.00121913 -0.00124731 -0.00120913 -0.00124731 -0.00120913 0.00363569 -0.00314968 -0.00120913 0.00130507 -0.00314968 -0.00497411 -0.00314968 -0.00497411 0.00459716 -0.00160965 0.00363569 -0.00314968 0.00149115 0.00459716 0.000770873 0.00218725 -0.000980739 0.00218176 0.00218725 -0.00124731 0.00218176 0.00363569 0.00218176 0.00363569 -0.00514486 0.00149115 -0.000980739 0.00218176 0.00163766 -0.00514486 0.000315361 0.00223685 -0.0036351 0.000461654 0.00223685 -0.00148924 0.000461654 0.00290675 0.000461654 0.00290675 -0.000482997 0.00147729 -0.0036351 0.000461654 -0.000390178 -0.000482997 -0.00148924 -0.00360145 0.00290675 -0.00015783 -0.00360145 -3.80689e-05 -0.00015783 -0.00280413 -0.00015783 -0.00280413 -0.000183633 0.000770873 0.00290675 -0.00015783 0.00147729 -0.000183633 0.00147729 -0.000183633 0.00105221 0.00234421 -0.000183633 0.000770873 0.00234421 -0.000980739 0.00234421 -0.000980739 0.00563374 0.00163766 0.00105221 0.00234421 -0.0013834 0.00563374 -0.000390178 -0.000482997 0.0019514 -0.0013432 -0.000482997 0.00147729 -0.0013432 0.00105221 -0.0013432 0.00105221 -0.00166951 -0.0013834 0.0019514 -0.0013432 0.00209758 -0.00166951 0.00209758 -0.00166951 -0.00166951 0.00268828 -0.00166951 -0.0013834 0.00268828 3.91411e-05 0.00268828 3.91411e-05 3.91411e-05 0.00409574 -0.00166951 0.00268828 -0.0013834 3.91411e-05 -0.0013834 0.00563374 3.91411e-05 -0.00291181 0.00563374 0.00163766 -0.00291181 0.00253181 -0.00291181 0.00253181 -0.00182094 -0.00233835 3.91411e-05 -0.00291181 0.00409574 -0.00182094 0.00409574 -0.00182094 -0.00182094 0.0061468 -0.00182094 -0.00233835 0.0061468 0.00247976 0.0061468 0.00247976 0.00247976 0.0043713 -0.00182094 0.0061468 -0.00233835 0.00247976 -0.0013834 3.91411e-05 0.00563374 -0.00291181 3.91411e-05 0.00409574 -0.00291181 -0.00182094 -0.00291181 -0.00182094 0.00253181 -0.00233835 0.00563374 -0.00291181 0.00163766 0.00253181 0.00163766 -0.00514486 0.00253181 0.0010833 -0.00514486 0.00149115 0.0010833 -0.00277102 0.0010833 -0.00277102 0.00577822 0.00326697 0.00253181 0.0010833 -0.00233835 0.00577822 0.00149115 0.00459716 -0.00277102 0.00237833 0.00459716 -0.00160965 0.00237833 0.00405775 0.00237833 0.00405775 -0.00177795 -0.000642389 -0.00277102 0.00237833 0.00326697 -0.00177795 0.00326697 -0.00177795 0.00164015 -0.00441309 -0.00177795 -0.000642389 -0.00441309 -0.00374956 -0.00441309 -0.00374956 -0.00626405 -0.00772578 0.00164015 -0.00441309 -0.00342422 -0.00626405 -0.00233835 0.00577822 0.00247976 0.00123064 0.00577822 0.00326697 0.00123064 0.00164015 0.00123064 0.00164015 -0.0022696 -0.00342422 0.00247976 0.00123064 0.0043713 -0.0022696 0.0043713 -0.0022696 -0.0022696 -0.00643311 -0.0022696 -0.00342422 -0.00643311 -0.00293333 -0.00643311 -0.00293333 -0.00293333 0.00257539 -0.0022696 -0.00643311 -0.00342422 -0.00293333 -0.00342422 -0.00626405 -0.00293333 0.00696255 -0.00626405 -0.00772578 0.00696255 0.0118322 0.00696255 0.0118322 0.029713 0.0712488 -0.00293333 0.00696255 0.00257539 0.029713 0.00257539 0.029713 0.029713 0.0695862 0.029713 0.0712488 0.0695862 0.143038 0.0695862 0.143038 0.143038 0.230354 0.029713 0.0695862 0.0712488 0.143038 -0.00342422 -0.00293333 -0.00626405 0.00696255 -0.00293333 0.00257539 0.00696255 0.029713 0.00696255 0.029713 0.0118322 0.0712488 -0.00626405 0.00696255 -0.00772578 0.0118322 0.00163766 0.00253181 -0.00514486 0.0010833 0.00253181 -0.00233835 0.0010833 0.00577822 0.0010833 0.00577822 -0.00277102 0.00326697 -0.00514486 0.0010833 0.00149115 -0.00277102 -0.00233835 0.00247976 0.00577822 0.00123064 0.00247976 0.0043713 0.00123064 -0.0022696 0.00123064 -0.0022696 0.00164015 -0.00342422 0.00577822 0.00123064 0.00326697 0.00164015 0.00326697 0.00164015 -0.00177795 -0.00441309 0.00164015 -0.00342422 -0.00441309 -0.00626405 -0.00441309 -0.00626405 -0.00374956 -0.00772578 -0.00177795 -0.00441309 -0.000642389 -0.00374956 0.00149115 -0.00277102 0.00459716 0.00237833 -0.00277102 0.00326697 0.00237833 -0.00177795 0.00237833 -0.00177795 0.00405775 -0.000642389 0.00459716 0.00237833 -0.00160965 0.00405775 0 -0.000555595 0 0.000966024 -0.000555595 -0.00147402 0.000966024 -0.00103195 0.000966024 -0.00103195 0.000179074 0.00212452 0 0.000966024 0 0.000179074 -0.00147402 0.00305765 -0.00103195 -0.00142743 0.00305765 0.000315361 -0.00142743 0.00223685 -0.00142743 0.00223685 -0.00257809 -0.00148924 -0.00103195 -0.00142743 0.00212452 -0.00257809 0.00212452 -0.00257809 0.00206999 0.00158564 -0.00257809 -0.00148924 0.00158564 -0.00360145 0.00158564 -0.00360145 0.00310736 -3.80689e-05 0.00206999 0.00158564 -0.00175026 0.00310736 0 0.000179074 0 -0.00143724 0.000179074 0.00212452 -0.00143724 0.00206999 -0.00143724 0.00206999 -0.000480901 -0.00175026 0 -0.00143724 0 -0.000480901 0.000315361 -0.0036351 0.00223685 0.000461654 -0.0036351 -0.000390178 0.000461654 -0.000482997 0.000461654 -0.000482997 0.00290675 0.00147729 0.00223685 0.000461654 -0.00148924 0.00290675 -0.000390178 0.0019514 -0.000482997 -0.0013432 0.0019514 0.00209758 -0.0013432 -0.00166951 -0.0013432 -0.00166951 0.00105221 -0.0013834 -0.000482997 -0.0013432 0.00147729 0.00105221 0.00147729 0.00105221 -0.000183633 0.00234421 0.00105221 -0.0013834 0.00234421 0.00563374 0.00234421 0.00563374 -0.000980739 0.00163766 -0.000183633 0.00234421 0.000770873 -0.000980739 -0.00148924 0.00290675 -0.00360145 -0.00015783 0.00290675 0.00147729 -0.00015783 -0.000183633 -0.00015783 -0.000183633 -0.00280413 0.000770873 -0.00360145 -0.00015783 -3.80689e-05 -0.00280413 -3.80689e-05 -0.00280413 0.0029366 -0.00207376 -0.00280413 0.000770873 -0.00207376 0.00218725 -0.00207376 0.00218725 0.00152146 -0.00124731 0.0029366 -0.00207376 -0.000811906 0.00152146 0.000770873 -0.000980739 0.00218725 0.00218176 -0.000980739 0.00163766 0.00218176 -0.00514486 0.00218176 -0.00514486 0.00363569 0.00149115 0.00218725 0.00218176 -0.00124731 0.00363569 -0.00124731 0.00363569 -0.00120913 -0.00314968 0.00363569 0.00149115 -0.00314968 0.00459716 -0.00314968 0.00459716 -0.00497411 -0.00160965 -0.00120913 -0.00314968 0.00130507 -0.00497411 -0.000811906 0.00152146 -0.00434245 0.00121913 0.00152146 -0.00124731 0.00121913 -0.00120913 0.00121913 -0.00120913 -0.00285117 0.00130507 -0.00434245 0.00121913 0.000245788 -0.00285117 0 -0.000480901 0 0.00108172 -0.000480901 -0.00175026 0.00108172 -0.00232456 0.00108172 -0.00232456 2.02638e-06 0.00229057 0 0.00108172 0 2.02638e-06 -0.00175026 0.00310736 -0.00232456 -0.000127754 0.00310736 -3.80689e-05 -0.000127754 0.0029366 -0.000127754 0.0029366 -0.00225765 -0.000811906 -0.00232456 -0.000127754 0.00229057 -0.00225765 0.00229057 -0.00225765 0.00253598 0.00163588 -0.00225765 -0.000811906 0.00163588 -0.00434245 0.00163588 -0.00434245 0.00458887 0.000245788 0.00253598 0.00163588 -0.00296665 0.00458887 0 2.02638e-06 0 -0.00172082 2.02638e-06 0.00229057 -0.00172082 0.00253598 -0.00172082 0.00253598 -0.000703115 -0.00296665 0 -0.00172082 0 -0.000703115 0 0 -0.000703115 0.00155425 0 0 0.00155425 0.00213935 0.00155425 0.00213935 -0.00402714 -0.000566106 -0.000703115 0.00155425 -0.00296665 -0.00402714 0 0 0.00213935 0.00168463 0 0 0.00168463 0.00128698 0.00168463 0.00128698 0.000336069 0.000473329 0.00213935 0.00168463 -0.000566106 0.000336069 -0.000566106 0.000336069 -0.00464509 -0.00409318 0.000336069 0.000473329 -0.00409318 -0.00354839 -0.00409318 -0.00354839 0.000635555 0.000488164 -0.00464509 -0.00409318 0.00294953 0.000635555 -0.00296665 -0.00402714 0.00458887 -1.69184e-05 -0.00402714 -0.000566106 -1.69184e-05 -0.00464509 -1.69184e-05 -0.00464509 0.0050026 0.00294953 0.00458887 -1.69184e-05 0.000245788 0.0050026 0 0 0.00128698 0.000276938 0 0 0.000276938 -0.000861268 0.000276938 -0.000861268 0.00278637 0.00326291 0.00128698 0.000276938 0.000473329 0.00278637 0 0 -0.000861268 -0.000689678 0 0 -0.000689678 0.000277819 -0.000689678 0.000277819 0.000409024 -0.00151267 -0.000861268 -0.000689678 0.00326291 0.000409024 0.00326291 0.000409024 -0.000834876 0.00197275 0.000409024 -0.00151267 0.00197275 0.00113395 0.00197275 0.00113395 -0.00229481 0.0018817 -0.000834876 0.00197275 -0.00489577 -0.00229481 0.000473329 0.00278637 -0.00354839 -0.00362899 0.00278637 0.00326291 -0.00362899 -0.000834876 -0.00362899 -0.000834876 -0.00224612 -0.00489577 -0.00354839 -0.00362899 0.000488164 -0.00224612 0.000488164 -0.00224612 0.00209802 0.00464838 -0.00224612 -0.00489577 0.00464838 0.00278346 0.00464838 0.00278346 0.00260447 0.00465359 0.00209802 0.00464838 0.00404987 0.00260447 -0.00489577 -0.00229481 0.00278346 -0.00253806 -0.00229481 0.0018817 -0.00253806 -0.00358118 -0.00253806 -0.00358118 0.00452932 0.000127617 0.00278346 -0.00253806 0.00465359 0.00452932 0.00465359 0.00452932 0.000157777 0.00191993 0.00452932 0.000127617 0.00191993 0.00399878 0.00191993 0.00399878 -0.00632995 -0.00508289 0.000157777 0.00191993 0.000975027 -0.00632995 0.00404987 0.00260447 0.00591704 0.00343829 0.00260447 0.00465359 0.00343829 0.000157777 0.00343829 0.000157777 0.0055901 0.000975027 0.00591704 0.00343829 0.000262994 0.0055901 0.000245788 0.0050026 -0.00285117 -0.0014162 0.0050026 0.00294953 -0.0014162 0.00263388 -0.0014162 0.00263388 5.69628e-05 0.00112285 -0.00285117 -0.0014162 0.00130507 5.69628e-05 0.00294953 0.000635555 0.00263388 0.00210763 0.000635555 0.000488164 0.00210763 0.00209802 0.00210763 0.00209802 0.00477526 0.00404987 0.00263388 0.00210763 0.00112285 0.00477526 0.00112285 0.00477526 -4.12763e-05 0.00272902 0.00477526 0.00404987 0.00272902 0.00591704 0.00272902 0.00591704 -0.00380005 0.000262994 -4.12763e-05 0.00272902 -0.00178917 -0.00380005 0.00130507 5.69628e-05 -0.00497411 -0.00139148 5.69628e-05 0.00112285 -0.00139148 -4.12763e-05 -0.00139148 -4.12763e-05 -0.00251991 -0.00178917 -0.00497411 -0.00139148 -0.00160965 -0.00251991 0 0 0.000277819 0.000543136 0 0 0.000543136 8.87029e-05 0.000543136 8.87029e-05 -0.000707398 0.000392539 0.000277819 0.000543136 -0.00151267 -0.000707398 0 0 8.87029e-05 -0.000198594 0 0 -0.000198594 -9.93275e-05 -0.000198594 -9.93275e-05 0.000303084 -0.000148752 8.87029e-05 -0.000198594 0.000392539 0.000303084 0.000392539 0.000303084 -0.000831736 0.000191831 0.000303084 -0.000148752 0.000191831 0.000484738 0.000191831 0.000484738 -0.000766056 -0.000219887 -0.000831736 0.000191831 0.000110317 -0.000766056 -0.00151267 -0.000707398 0.00113395 -0.000830158 -0.000707398 0.000392539 -0.000830158 -0.000831736 -0.000830158 -0.000831736 0.00220417 0.000110317 0.00113395 -0.000830158 0.0018817 0.00220417 0 0 -9.93275e-05 3.52036e-05 0 0 3.52036e-05 4.93329e-05 3.52036e-05 4.93329e-05 -0.000212623 -6.48145e-05 -9.93275e-05 3.52036e-05 -0.000148752 -0.000212623 0 0 4.93329e-05 6.89995e-06 0 0 6.89995e-06 0 6.89995e-06 0 2.43584e-05 0 4.93329e-05 6.89995e-06 -6.48145e-05 2.43584e-05 -6.48145e-05 2.43584e-05 -6.45963e-05 -5.12687e-05 2.43584e-05 0 -5.12687e-05 0 -5.12687e-05 0 6.71324e-06 0 -6.45963e-05 -5.12687e-05 0.000185239 6.71324e-06 -0.000148752 -0.000212623 0.000484738 0.00016509 -0.000212623 -6.48145e-05 0.00016509 -6.45963e-05 0.00016509 -6.45963e-05 0.0002257 0.000185239 0.000484738 0.00016509 -0.000219887 0.0002257 -0.000219887 0.0002257 -0.000495312 -0.000425526 0.0002257 0.000185239 -0.000425526 -6.32379e-05 -0.000425526 -6.32379e-05 5.90555e-05 -0.000165075 -0.000495312 -0.000425526 0.000619191 5.90555e-05 0.000185239 6.71324e-06 -6.32379e-05 6.7531e-05 6.71324e-06 0 6.7531e-05 0 6.7531e-05 0 -5.61366e-05 0 -6.32379e-05 6.7531e-05 -0.000165075 -5.61366e-05 -0.000165075 -5.61366e-05 0.000161213 -2.61443e-05 -5.61366e-05 0 -2.61443e-05 0 -2.61443e-05 0 5.71645e-05 0 0.000161213 -2.61443e-05 -1.27321e-05 5.71645e-05 0.000619191 5.90555e-05 -5.27378e-05 0.000329539 5.90555e-05 -0.000165075 0.000329539 0.000161213 0.000329539 0.000161213 -0.000328807 -1.27321e-05 -5.27378e-05 0.000329539 -0.000342634 -0.000328807 0.0018817 0.00220417 -0.00358118 -0.000411461 0.00220417 0.000110317 -0.000411461 0.00134274 -0.000411461 0.00134274 -0.00264459 -0.00136844 -0.00358118 -0.000411461 0.000127617 -0.00264459 0.000110317 -0.000766056 0.00134274 0.000457435 -0.000766056 -0.000219887 0.000457435 -0.000495312 0.000457435 -0.000495312 0.000473744 0.000619191 0.00134274 0.000457435 -0.00136844 0.000473744 -0.00136844 0.000473744 -0.000668995 -0.000987458 0.000473744 0.000619191 -0.000987458 -5.27378e-05 -0.000987458 -5.27378e-05 0.000987826 -0.000342634 -0.000668995 -0.000987458 0.00266286 0.000987826 0.000127617 -0.00264459 0.00399878 0.00206175 -0.00264459 -0.00136844 0.00206175 -0.000668995 0.00206175 -0.000668995 0.000692856 0.00266286 0.00399878 0.00206175 -0.00508289 0.000692856 -0.00508289 0.000692856 -0.00500173 -0.00613408 0.000692856 0.00266286 -0.00613408 -0.00132923 -0.00613408 -0.00132923 -0.000127415 -0.00415599 -0.00500173 -0.00613408 0.00968176 -0.000127415 0.00266286 0.000987826 -0.00132923 0.00176447 0.000987826 -0.000342634 0.00176447 0.0014017 0.00176447 0.0014017 -0.00173738 0.000805973 -0.00132923 0.00176447 -0.00415599 -0.00173738 -0.00415599 -0.00173738 0.00366908 -0.00111162 -0.00173738 0.000805973 -0.00111162 -0.00112172 -0.00111162 -0.00112172 0.00394384 0.000466045 0.00366908 -0.00111162 0.00610341 0.00394384 0.00968176 -0.000127415 0.00635487 0.00997952 -0.000127415 -0.00415599 0.00997952 0.00366908 0.00997952 0.00366908 -0.00173939 0.00610341 0.00635487 0.00997952 -0.0173502 -0.00173939 -0.000342634 -0.000328807 0.0014017 0.000274619 -0.000328807 -1.27321e-05 0.000274619 -0.000126482 0.000274619 -0.000126482 0.000995575 0.000328214 0.0014017 0.000274619 0.000805973 0.000995575 -1.27321e-05 5.71645e-05 -0.000126482 -5.14674e-05 5.71645e-05 0 -5.14674e-05 0 -5.14674e-05 0 -4.32865e-05 0 -0.000126482 -5.14674e-05 0.000328214 -4.32865e-05 0.000328214 -4.32865e-05 0.000365583 0.00011313 -4.32865e-05 0 0.00011313 0 0.00011313 0 9.49212e-05 0 0.000365583 0.00011313 -9.18392e-05 9.49212e-05 0.000805973 0.000995575 -0.00112172 6.12291e-05 0.000995575 0.000328214 6.12291e-05 0.000365583 6.12291e-05 0.000365583 -0.000417084 -9.18392e-05 -0.00112172 6.12291e-05 0.000466045 -0.000417084 0.000466045 -0.000417084 0.0025717 0.00070844 -0.000417084 -9.18392e-05 0.00070844 -0.00011434 0.00070844 -0.00011434 0.00108137 0.000387122 0.0025717 0.00070844 -0.000568788 0.00108137 -9.18392e-05 9.49212e-05 -0.00011434 -5.68098e-05 9.49212e-05 0 -5.68098e-05 0 -5.68098e-05 0 -6.40239e-05 0 -0.00011434 -5.68098e-05 0.000387122 -6.40239e-05 0.000387122 -6.40239e-05 0.000464473 0.000176239 -6.40239e-05 0 0.000176239 0 0.000176239 0 0.000327304 0 0.000464473 0.000176239 -0.000866338 0.000327304 -0.000568788 0.00108137 -0.00562278 -0.00120313 0.00108137 0.000387122 -0.00120313 0.000464473 -0.00120313 0.000464473 -0.00416023 -0.000866338 -0.00562278 -0.00120313 -0.000787421 -0.00416023 -0.0173502 -0.00173939 -0.00601892 -0.0170795 -0.00173939 0.00610341 -0.0170795 -0.00683074 -0.0170795 -0.00683074 0.0187276 -0.00869464 -0.00601892 -0.0170795 0.0858647 0.0187276 0.00610341 0.00394384 -0.00683074 0.00186695 0.00394384 0.000466045 0.00186695 0.0025717 0.00186695 0.0025717 -0.00697031 -0.000568788 -0.00683074 0.00186695 -0.00869464 -0.00697031 -0.00869464 -0.00697031 0.0360603 -0.00219776 -0.00697031 -0.000568788 -0.00219776 -0.00562278 -0.00219776 -0.00562278 0.0360837 -0.000787421 0.0360603 -0.00219776 0.132197 0.0360837 0.0858647 0.0187276 0.235818 0.125563 0.0187276 -0.00869464 0.125563 0.0360603 0.125563 0.0360603 0.269559 0.132197 0.235818 0.125563 0.38837 0.269559 -0.00160965 -0.00251991 0.00405775 0.00132947 -0.00251991 -0.00178917 0.00132947 0.00387551 0.00132947 0.00387551 -0.002957