<?xml version="1.0" encoding="UTF-8"?>
<VTKFile type="UnstructuredGrid" version="0.1" byte_order="LittleEndian" compressor="vtkZLibDataCompressor">
    <UnstructuredGrid>
        <Piece NumberOfPoints="4096" NumberOfCells="1024">
            <Points>
                <DataArray type="Float64" Name="Array" NumberOfComponents="3" format="ascii" RangeMin="0" RangeMax="1">0 0 0 0.03125 0 0 0 0.03125 0 0.03125 0.03125 0 0.03125 0 0 0.0625 0 0 0.03125 0.03125 0 0.0625 0.03125 0 0.03125 0.03125 0 0.0625 0.03125 0 0.03125 0.0625 0 0.0625 0.0625 0 0 0.03125 0 0.03125 0.03125 0 0 0.0625 0 0.03125 0.0625 0 0.0625 0 0 0.09375 0 0 0.0625 0.03125 0 0.09375 0.03125 0 0.09375 0 0 0.125 0 0 0.09375 0.03125 0 0.125 0.03125 0 0.09375 0.03125 0 0.125 0.03125 0 0.09375 0.0625 0 0.125 0.0625 0 0.0625 0.03125 0 0.09375 0.03125 0 0.0625 0.0625 0 0.09375 0.0625 0 0.0625 0.0625 0 0.09375 0.0625 0 0.0625 0.09375 0 0.09375 0.09375 0 0.09375 0.0625 0 0.125 0.0625 0 0.09375 0.09375 0 0.125 0.09375 0 0.09375 0.09375 0 0.125 0.09375 0 0.09375 0.125 0 0.125 0.125 0 0.0625 0.09375 0 0.09375 0.09375 0 0.0625 0.125 0 0.09375 0.125 0 0 0.0625 0 0.03125 0.0625 0 0 0.09375 0 0.03125 0.09375 0 0.03125 0.0625 0 0.0625 0.0625 0 0.03125 0.09375 0 0.0625 0.09375 0 0.03125 0.09375 0 0.0625 0.09375 0 0.03125 0.125 0 0.0625 0.125 0 0 0.09375 0 0.03125 0.09375 0 0 0.125 0 0.03125 0.125 0 0.125 0 0 0.15625 0 0 0.125 0.03125 0 0.15625 0.03125 0 0.15625 0 0 0.1875 0 0 0.15625 0.03125 0 0.1875 0.03125 0 0.15625 0.03125 0 0.1875 0.03125 0 0.15625 0.0625 0 0.1875 0.0625 0 0.125 0.03125 0 0.15625 0.03125 0 0.125 0.0625 0 0.15625 0.0625 0 0.1875 0 0 0.21875 0 0 0.1875 0.03125 0 0.21875 0.03125 0 0.21875 0 0 0.25 0 0 0.21875 0.03125 0 0.25 0.03125 0 0.21875 0.03125 0 0.25 0.03125 0 0.21875 0.0625 0 0.25 0.0625 0 0.1875 0.03125 0 0.21875 0.03125 0 0.1875 0.0625 0 0.21875 0.0625 0 0.1875 0.0625 0 0.21875 0.0625 0 0.1875 0.09375 0 0.21875 0.09375 0 0.21875 0.0625 0 0.25 0.0625 0 0.21875 0.09375 0 0.25 0.09375 0 0.21875 0.09375 0 0.25 0.09375 0 0.21875 0.125 0 0.25 0.125 0 0.1875 0.09375 0 0.21875 0.09375 0 0.1875 0.125 0 0.21875 0.125 0 0.125 0.0625 0 0.15625 0.0625 0 0.125 0.09375 0 0.15625 0.09375 0 0.15625 0.0625 0 0.1875 0.0625 0 0.15625 0.09375 0 0.1875 0.09375 0 0.15625 0.09375 0 0.1875 0.09375 0 0.15625 0.125 0 0.1875 0.125 0 0.125 0.09375 0 0.15625 0.09375 0 0.125 0.125 0 0.15625 0.125 0 0.125 0.125 0 0.15625 0.125 0 0.125 0.15625 0 0.15625 0.15625 0 0.15625 0.125 0 0.1875 0.125 0 0.15625 0.15625 0 0.1875 0.15625 0 0.15625 0.15625 0 0.1875 0.15625 0 0.15625 0.1875 0 0.1875 0.1875 0 0.125 0.15625 0 0.15625 0.15625 0 0.125 0.1875 0 0.15625 0.1875 0 0.1875 0.125 0 0.21875 0.125 0 0.1875 0.15625 0 0.21875 0.15625 0 0.21875 0.125 0 0.25 0.125 0 0.21875 0.15625 0 0.25 0.15625 0 0.21875 0.15625 0 0.25 0.15625 0 0.21875 0.1875 0 0.25 0.1875 0 0.1875 0.15625 0 0.21875 0.15625 0 0.1875 0.1875 0 0.21875 0.1875 0 0.1875 0.1875 0 0.21875 0.1875 0 0.1875 0.21875 0 0.21875 0.21875 0 0.21875 0.1875 0 0.25 0.1875 0 0.21875 0.21875 0 0.25 0.21875 0 0.21875 0.21875 0 0.25 0.21875 0 0.21875 0.25 0 0.25 0.25 0 0.1875 0.21875 0 0.21875 0.21875 0 0.1875 0.25 0 0.21875 0.25 0 0.125 0.1875 0 0.15625 0.1875 0 0.125 0.21875 0 0.15625 0.21875 0 0.15625 0.1875 0 0.1875 0.1875 0 0.15625 0.21875 0 0.1875 0.21875 0 0.15625 0.21875 0 0.1875 0.21875 0 0.15625 0.25 0 0.1875 0.25 0 0.125 0.21875 0 0.15625 0.21875 0 0.125 0.25 0 0.15625 0.25 0 0 0.125 0 0.03125 0.125 0 0 0.15625 0 0.03125 0.15625 0 0.03125 0.125 0 0.0625 0.125 0 0.03125 0.15625 0 0.0625 0.15625 0 0.03125 0.15625 0 0.0625 0.15625 0 0.03125 0.1875 0 0.0625 0.1875 0 0 0.15625 0 0.03125 0.15625 0 0 0.1875 0 0.03125 0.1875 0 0.0625 0.125 0 0.09375 0.125 0 0.0625 0.15625 0 0.09375 0.15625 0 0.09375 0.125 0 0.125 0.125 0 0.09375 0.15625 0 0.125 0.15625 0 0.09375 0.15625 0 0.125 0.15625 0 0.09375 0.1875 0 0.125 0.1875 0 0.0625 0.15625 0 0.09375 0.15625 0 0.0625 0.1875 0 0.09375 0.1875 0 0.0625 0.1875 0 0.09375 0.1875 0 0.0625 0.21875 0 0.09375 0.21875 0 0.09375 0.1875 0 0.125 0.1875 0 0.09375 0.21875 0 0.125 0.21875 0 0.09375 0.21875 0 0.125 0.21875 0 0.09375 0.25 0 0.125 0.25 0 0.0625 0.21875 0 0.09375 0.21875 0 0.0625 0.25 0 0.09375 0.25 0 0 0.1875 0 0.03125 0.1875 0 0 0.21875 0 0.03125 0.21875 0 0.03125 0.1875 0 0.0625 0.1875 0 0.03125 0.21875 0 0.0625 0.21875 0 0.03125 0.21875 0 0.0625 0.21875 0 0.03125 0.25 0 0.0625 0.25 0 0 0.21875 0 0.03125 0.21875 0 0 0.25 0 0.03125 0.25 0 0.25 0 0 0.28125 0 0 0.25 0.03125 0 0.28125 0.03125 0 0.28125 0 0 0.3125 0 0 0.28125 0.03125 0 0.3125 0.03125 0 0.28125 0.03125 0 0.3125 0.03125 0 0.28125 0.0625 0 0.3125 0.0625 0 0.25 0.03125 0 0.28125 0.03125 0 0.25 0.0625 0 0.28125 0.0625 0 0.3125 0 0 0.34375 0 0 0.3125 0.03125 0 0.34375 0.03125 0 0.34375 0 0 0.375 0 0 0.34375 0.03125 0 0.375 0.03125 0 0.34375 0.03125 0 0.375 0.03125 0 0.34375 0.0625 0 0.375 0.0625 0 0.3125 0.03125 0 0.34375 0.03125 0 0.3125 0.0625 0 0.34375 0.0625 0 0.3125 0.0625 0 0.34375 0.0625 0 0.3125 0.09375 0 0.34375 0.09375 0 0.34375 0.0625 0 0.375 0.0625 0 0.34375 0.09375 0 0.375 0.09375 0 0.34375 0.09375 0 0.375 0.09375 0 0.34375 0.125 0 0.375 0.125 0 0.3125 0.09375 0 0.34375 0.09375 0 0.3125 0.125 0 0.34375 0.125 0 0.25 0.0625 0 0.28125 0.0625 0 0.25 0.09375 0 0.28125 0.09375 0 0.28125 0.0625 0 0.3125 0.0625 0 0.28125 0.09375 0 0.3125 0.09375 0 0.28125 0.09375 0 0.3125 0.09375 0 0.28125 0.125 0 0.3125 0.125 0 0.25 0.09375 0 0.28125 0.09375 0 0.25 0.125 0 0.28125 0.125 0 0.375 0 0 0.40625 0 0 0.375 0.03125 0 0.40625 0.03125 0 0.40625 0 0 0.4375 0 0 0.40625 0.03125 0 0.4375 0.03125 0 0.40625 0.03125 0 0.4375 0.03125 0 0.40625 0.0625 0 0.4375 0.0625 0 0.375 0.03125 0 0.40625 0.03125 0 0.375 0.0625 0 0.40625 0.0625 0 0.4375 0 0 0.46875 0 0 0.4375 0.03125 0 0.46875 0.03125 0 0.46875 0 0 0.5 0 0 0.46875 0.03125 0 0.5 0.03125 0 0.46875 0.03125 0 0.5 0.03125 0 0.46875 0.0625 0 0.5 0.0625 0 0.4375 0.03125 0 0.46875 0.03125 0 0.4375 0.0625 0 0.46875 0.0625 0 0.4375 0.0625 0 0.46875 0.0625 0 0.4375 0.09375 0 0.46875 0.09375 0 0.46875 0.0625 0 0.5 0.0625 0 0.46875 0.09375 0 0.5 0.09375 0 0.46875 0.09375 0 0.5 0.09375 0 0.46875 0.125 0 0.5 0.125 0 0.4375 0.09375 0 0.46875 0.09375 0 0.4375 0.125 0 0.46875 0.125 0 0.375 0.0625 0 0.40625 0.0625 0 0.375 0.09375 0 0.40625 0.09375 0 0.40625 0.0625 0 0.4375 0.0625 0 0.40625 0.09375 0 0.4375 0.09375 0 0.40625 0.09375 0 0.4375 0.09375 0 0.40625 0.125 0 0.4375 0.125 0 0.375 0.09375 0 0.40625 0.09375 0 0.375 0.125 0 0.40625 0.125 0 0.375 0.125 0 0.40625 0.125 0 0.375 0.15625 0 0.40625 0.15625 0 0.40625 0.125 0 0.4375 0.125 0 0.40625 0.15625 0 0.4375 0.15625 0 0.40625 0.15625 0 0.4375 0.15625 0 0.40625 0.1875 0 0.4375 0.1875 0 0.375 0.15625 0 0.40625 0.15625 0 0.375 0.1875 0 0.40625 0.1875 0 0.4375 0.125 0 0.46875 0.125 0 0.4375 0.15625 0 0.46875 0.15625 0 0.46875 0.125 0 0.5 0.125 0 0.46875 0.15625 0 0.5 0.15625 0 0.46875 0.15625 0 0.5 0.15625 0 0.46875 0.1875 0 0.5 0.1875 0 0.4375 0.15625 0 0.46875 0.15625 0 0.4375 0.1875 0 0.46875 0.1875 0 0.4375 0.1875 0 0.46875 0.1875 0 0.4375 0.21875 0 0.46875 0.21875 0 0.46875 0.1875 0 0.5 0.1875 0 0.46875 0.21875 0 0.5 0.21875 0 0.46875 0.21875 0 0.5 0.21875 0 0.46875 0.25 0 0.5 0.25 0 0.4375 0.21875 0 0.46875 0.21875 0 0.4375 0.25 0 0.46875 0.25 0 0.375 0.1875 0 0.40625 0.1875 0 0.375 0.21875 0 0.40625 0.21875 0 0.40625 0.1875 0 0.4375 0.1875 0 0.40625 0.21875 0 0.4375 0.21875 0 0.40625 0.21875 0 0.4375 0.21875 0 0.40625 0.25 0 0.4375 0.25 0 0.375 0.21875 0 0.40625 0.21875 0 0.375 0.25 0 0.40625 0.25 0 0.25 0.125 0 0.28125 0.125 0 0.25 0.15625 0 0.28125 0.15625 0 0.28125 0.125 0 0.3125 0.125 0 0.28125 0.15625 0 0.3125 0.15625 0 0.28125 0.15625 0 0.3125 0.15625 0 0.28125 0.1875 0 0.3125 0.1875 0 0.25 0.15625 0 0.28125 0.15625 0 0.25 0.1875 0 0.28125 0.1875 0 0.3125 0.125 0 0.34375 0.125 0 0.3125 0.15625 0 0.34375 0.15625 0 0.34375 0.125 0 0.375 0.125 0 0.34375 0.15625 0 0.375 0.15625 0 0.34375 0.15625 0 0.375 0.15625 0 0.34375 0.1875 0 0.375 0.1875 0 0.3125 0.15625 0 0.34375 0.15625 0 0.3125 0.1875 0 0.34375 0.1875 0 0.3125 0.1875 0 0.34375 0.1875 0 0.3125 0.21875 0 0.34375 0.21875 0 0.34375 0.1875 0 0.375 0.1875 0 0.34375 0.21875 0 0.375 0.21875 0 0.34375 0.21875 0 0.375 0.21875 0 0.34375 0.25 0 0.375 0.25 0 0.3125 0.21875 0 0.34375 0.21875 0 0.3125 0.25 0 0.34375 0.25 0 0.25 0.1875 0 0.28125 0.1875 0 0.25 0.21875 0 0.28125 0.21875 0 0.28125 0.1875 0 0.3125 0.1875 0 0.28125 0.21875 0 0.3125 0.21875 0 0.28125 0.21875 0 0.3125 0.21875 0 0.28125 0.25 0 0.3125 0.25 0 0.25 0.21875 0 0.28125 0.21875 0 0.25 0.25 0 0.28125 0.25 0 0.25 0.25 0 0.28125 0.25 0 0.25 0.28125 0 0.28125 0.28125 0 0.28125 0.25 0 0.3125 0.25 0 0.28125 0.28125 0 0.3125 0.28125 0 0.28125 0.28125 0 0.3125 0.28125 0 0.28125 0.3125 0 0.3125 0.3125 0 0.25 0.28125 0 0.28125 0.28125 0 0.25 0.3125 0 0.28125 0.3125 0 0.3125 0.25 0 0.34375 0.25 0 0.3125 0.28125 0 0.34375 0.28125 0 0.34375 0.25 0 0.375 0.25 0 0.34375 0.28125 0 0.375 0.28125 0 0.34375 0.28125 0 0.375 0.28125 0 0.34375 0.3125 0 0.375 0.3125 0 0.3125 0.28125 0 0.34375 0.28125 0 0.3125 0.3125 0 0.34375 0.3125 0 0.3125 0.3125 0 0.34375 0.3125 0 0.3125 0.34375 0 0.34375 0.34375 0 0.34375 0.3125 0 0.375 0.3125 0 0.34375 0.34375 0 0.375 0.34375 0 0.34375 0.34375 0 0.375 0.34375 0 0.34375 0.375 0 0.375 0.375 0 0.3125 0.34375 0 0.34375 0.34375 0 0.3125 0.375 0 0.34375 0.375 0 0.25 0.3125 0 0.28125 0.3125 0 0.25 0.34375 0 0.28125 0.34375 0 0.28125 0.3125 0 0.3125 0.3125 0 0.28125 0.34375 0 0.3125 0.34375 0 0.28125 0.34375 0 0.3125 0.34375 0 0.28125 0.375 0 0.3125 0.375 0 0.25 0.34375 0 0.28125 0.34375 0 0.25 0.375 0 0.28125 0.375 0 0.375 0.25 0 0.40625 0.25 0 0.375 0.28125 0 0.40625 0.28125 0 0.40625 0.25 0 0.4375 0.25 0 0.40625 0.28125 0 0.4375 0.28125 0 0.40625 0.28125 0 0.4375 0.28125 0 0.40625 0.3125 0 0.4375 0.3125 0 0.375 0.28125 0 0.40625 0.28125 0 0.375 0.3125 0 0.40625 0.3125 0 0.4375 0.25 0 0.46875 0.25 0 0.4375 0.28125 0 0.46875 0.28125 0 0.46875 0.25 0 0.5 0.25 0 0.46875 0.28125 0 0.5 0.28125 0 0.46875 0.28125 0 0.5 0.28125 0 0.46875 0.3125 0
[...]
            <PointData>
                <DataArray Name="u" type="Float64" format="ascii">0 0 0 0.00239689 0 0 0.00239689 2.54828e-05 0.00239689 2.54828e-05 2.54828e-05 0.00482972 0 0.00239689 0 2.54828e-05 0 0 2.54828e-05 -0.0027092 0 0 -0.0027092 0.000917828 -0.0027092 0.000917828 0.00117075 -0.00130994 2.54828e-05 -0.0027092 0.00482972 0.00117075 0.00482972 0.00117075 0.00117075 0.00171893 0.00117075 -0.00130994 0.00171893 0.000273116 0.00171893 0.000273116 0.000273116 -0.00209973 0.00117075 0.00171893 -0.00130994 0.000273116 0 2.54828e-05 0 -0.0027092 2.54828e-05 0.00482972 -0.0027092 0.00117075 -0.0027092 0.00117075 0.000917828 -0.00130994 0 -0.0027092 0 0.000917828 0 0 0.000917828 0.00296563 0 0 0.00296563 0.000719281 0.00296563 0.000719281 -0.000180072 0.004949 0.000917828 0.00296563 -0.00130994 -0.000180072 0 0 0.000719281 -0.00351221 0 0 -0.00351221 0.000942696 -0.00351221 0.000942696 0.00392714 -0.0028749 0.000719281 -0.00351221 0.004949 0.00392714 0.004949 0.00392714 -0.00278097 0.00382378 0.00392714 -0.0028749 0.00382378 0.00161573 0.00382378 0.00161573 -0.00486853 -1.30828e-05 -0.00278097 0.00382378 0.00361591 -0.00486853 -0.00130994 -0.000180072 0.000273116 -0.000761348 -0.000180072 0.004949 -0.000761348 -0.00278097 -0.000761348 -0.00278097 0.00341527 0.00361591 0.000273116 -0.000761348 -0.00209973 0.00341527 -0.00209973 0.00341527 0.00341527 -0.00291984 0.00341527 0.00361591 -0.00291984 0.00167638 -0.00291984 0.00167638 0.00167638 -0.00262769 0.00341527 -0.00291984 0.00361591 0.00167638 0.00361591 -0.00486853 0.00167638 0.00348715 -0.00486853 -1.30828e-05 0.00348715 0.000988786 0.00348715 0.000988786 0.00441647 0.00169521 0.00167638 0.00348715 -0.00262769 0.00441647 -0.00262769 0.00441647 0.00441647 0.00210753 0.00441647 0.00169521 0.00210753 -0.00413729 0.00210753 -0.00413729 -0.00413729 0.000418138 0.00441647 0.00210753 0.00169521 -0.00413729 0.00361591 0.00167638 -0.00486853 0.00348715 0.00167638 -0.00262769 0.00348715 0.00441647 0.00348715 0.00441647 0.000988786 0.00169521 -0.00486853 0.00348715 -1.30828e-05 0.000988786 0 0.000917828 0 0.00296563 0.000917828 -0.00130994 0.00296563 -0.000180072 0.00296563 -0.000180072 0.000719281 0.004949 0 0.00296563 0 0.000719281 -0.00130994 0.000273116 -0.000180072 -0.000761348 0.000273116 -0.00209973 -0.000761348 0.00341527 -0.000761348 0.00341527 -0.00278097 0.00361591 -0.000180072 -0.000761348 0.004949 -0.00278097 0.004949 -0.00278097 0.00392714 0.00382378 -0.00278097 0.00361591 0.00382378 -0.00486853 0.00382378 -0.00486853 0.00161573 -1.30828e-05 0.00392714 0.00382378 -0.0028749 0.00161573 0 0.000719281 0 -0.00351221 0.000719281 0.004949 -0.00351221 0.00392714 -0.00351221 0.00392714 0.000942696 -0.0028749 0 -0.00351221 0 0.000942696 0 0 0.000942696 0.00258023 0 0 0.00258023 -0.0040566 0.00258023 -0.0040566 0.00217405 0.00373127 0.000942696 0.00258023 -0.0028749 0.00217405 0 0 -0.0040566 -0.00348749 0 0 -0.00348749 0.00201574 -0.00348749 0.00201574 -0.00395798 -0.00546668 -0.0040566 -0.00348749 0.00373127 -0.00395798 0.00373127 -0.00395798 0.000793191 0.000945986 -0.00395798 -0.00546668 0.000945986 0.00202824 0.000945986 0.00202824 0.00086719 -0.00491556 0.000793191 0.000945986 0.00181948 0.00086719 -0.0028749 0.00217405 0.00161573 -0.00309109 0.00217405 0.00373127 -0.00309109 0.000793191 -0.00309109 0.000793191 0.00218271 0.00181948 0.00161573 -0.00309109 -1.30828e-05 0.00218271 0 0 0.00201574 0.00545037 0 0 0.00545037 0.00774786 0.00545037 0.00774786 -0.00304027 -2.99692e-05 0.00201574 0.00545037 -0.00546668 -0.00304027 0 0 0.00774786 0.00771521 0 0 0.00771521 0.00605415 0.00771521 0.00605415 0.00323968 0.00339662 0.00774786 0.00771521 -2.99692e-05 0.00323968 -2.99692e-05 0.00323968 -0.0010201 0.000467401 0.00323968 0.00339662 0.000467401 0.00284171 0.000467401 0.00284171 0.00162711 0.00535909 -0.0010201 0.000467401 0.00594771 0.00162711 -0.00546668 -0.00304027 0.00202824 0.00299793 -0.00304027 -2.99692e-05 0.00299793 -0.0010201 0.00299793 -0.0010201 0.000390635 0.00594771 0.00202824 0.00299793 -0.00491556 0.000390635 -0.00491556 0.000390635 0.00205755 -0.00761657 0.000390635 0.00594771 -0.00761657 -0.00409154 -0.00761657 -0.00409154 0.00606132 0.000207877 0.00205755 -0.00761657 0.00318648 0.00606132 0.00594771 0.00162711 -0.00409154 -0.000625626 0.00162711 0.00535909 -0.000625626 -0.00730394 -0.000625626 -0.00730394 0.00589766 -0.000805481 -0.00409154 -0.000625626 0.000207877 0.00589766 0.000207877 0.00589766 0.0357959 0.033913 0.00589766 -0.000805481 0.033913 0.0368946 0.033913 0.0368946 0.13541 0.127143 0.0357959 0.033913 0.135294 0.13541 0.00318648 0.00606132 0.0109834 0.032093 0.00606132 0.000207877 0.032093 0.0357959 0.032093 0.0357959 0.108114 0.135294 0.0109834 0.032093 0.0776475 0.108114 -1.30828e-05 0.00218271 0.000988786 0.00190056 0.00218271 0.00181948 0.00190056 -0.00247819 0.00190056 -0.00247819 0.000570866 -0.00616035 0.000988786 0.00190056 0.00169521 0.000570866 0.00181948 0.00086719 -0.00247819 0.00157093 0.00086719 -0.00491556 0.00157093 0.00205755 0.00157093 0.00205755 -0.0110529 0.00318648 -0.00247819 0.00157093 -0.00616035 -0.0110529 -0.00616035 -0.0110529 0.00728727 0.0070527 -0.0110529 0.00318648 0.0070527 0.0109834 0.0070527 0.0109834 0.051677 0.0776475 0.00728727 0.0070527 0.0180841 0.051677 0.00169521 0.000570866 -0.00413729 -0.00611808 0.000570866 -0.00616035 -0.00611808 0.00728727 -0.00611808 0.00728727 0.00280278 0.0180841 -0.00413729 -0.00611808 0.000418138 0.00280278 0.000418138 0.00280278 0.00280278 0.0346784 0.00280278 0.0180841 0.0346784 0.0647194 0.0346784 0.0647194 0.0647194 0.139155 0.00280278 0.0346784 0.0180841 0.0647194 0.0180841 0.051677 0.0647194 0.113634 0.051677 0.0776475 0.113634 0.174544 0.113634 0.174544 0.215646 0.302895 0.0647194 0.113634 0.139155 0.215646 0.139155 0.215646 0.215646 0.322919 0.215646 0.302895 0.322919 0.428879 0.322919 0.428879 0.428879 0.530957 0.215646 0.322919 0.302895 0.428879 0.0180841 0.0647194 0.051677 0.113634 0.0647194 0.139155 0.113634 0.215646 0.113634 0.215646 0.174544 0.302895 0.051677 0.113634 0.0776475 0.174544 0.0776475 0.108114 0.174544 0.224455 0.108114 0.135294 0.224455 0.270628 0.224455 0.270628 0.368626 0.41314 0.174544 0.224455 0.302895 0.368626 0.135294 0.13541 0.270628 0.289326 0.13541 0.127143 0.289326 0.273175 0.289326 0.273175 0.447658 0.438118 0.270628 0.289326 0.41314 0.447658 0.41314 0.447658 0.565722 0.594172 0.447658 0.438118 0.594172 0.595966 0.594172 0.595966 0.71439 0.722854 0.565722 0.594172 0.693563 0.71439 0.302895 0.368626 0.428879 0.519709 0.368626 0.41314 0.519709 0.565722 0.519709 0.565722 0.632454 0.693563 0.428879 0.519709 0.530957 0.632454 0.530957 0.632454 0.632454 0.723782 0.632454 0.693563 0.723782 0.791034 0.723782 0.791034 0.791034 0.860879 0.632454 0.723782 0.693563 0.791034 0.693563 0.71439 0.791034 0.814129 0.71439 0.722854 0.814129 0.813965 0.814129 0.813965 0.886451 0.881037 0.791034 0.814129 0.860879 0.886451 0.860879 0.886451 0.886451 0.916207 0.886451 0.881037 0.916207 0.914589 0.916207 0.914589 0.914589 0.908902 0.886451 0.916207 0.881037 0.914589 0.693563 0.791034 0.71439 0.814129 0.791034 0.860879 0.814129 0.886451 0.814129 0.886451 0.813965 0.881037 0.71439 0.814129 0.722854 0.813965 0.0776475 0.174544 0.108114 0.224455 0.174544 0.302895 0.224455 0.368626 0.224455 0.368626 0.270628 0.41314 0.108114 0.224455 0.135294 0.270628 0.302895 0.428879 0.368626 0.519709 0.428879 0.530957 0.519709 0.632454 0.519709 0.632454 0.565722 0.693563 0.368626 0.519709 0.41314 0.565722 0.41314 0.565722 0.447658 0.594172 0.565722 0.693563 0.594172 0.71439 0.594172 0.71439 0.595966 0.722854 0.447658 0.594172 0.438118 0.595966 0.135294 0.270628 0.13541 0.289326 0.270628 0.41314 0.289326 0.447658 0.289326 0.447658 0.273175 0.438118 0.13541 0.289326 0.127143 0.273175 0 0.000942696 0 0.00258023 0.000942696 -0.0028749 0.00258023 0.00217405 0.00258023 0.00217405 -0.0040566 0.00373127 0 0.00258023 0 -0.0040566 -0.0028749 0.00161573 0.00217405 -0.00309109 0.00161573 -1.30828e-05 -0.00309109 0.00218271 -0.00309109 0.00218271 0.000793191 0.00181948 0.00217405 -0.00309109 0.00373127 0.000793191 0.00373127 0.000793191 -0.00395798 0.000945986 0.000793191 0.00181948 0.000945986 0.00086719 0.000945986 0.00086719 0.00202824 -0.00491556 -0.00395798 0.000945986 -0.00546668 0.00202824 0 -0.0040566 0 -0.00348749 -0.0040566 0.00373127 -0.00348749 -0.00395798 -0.00348749 -0.00395798 0.00201574 -0.00546668 0 -0.00348749 0 0.00201574 -1.30828e-05 0.000988786 0.00218271 0.00190056 0.000988786 0.00169521 0.00190056 0.000570866 0.00190056 0.000570866 -0.00247819 -0.00616035 0.00218271 0.00190056 0.00181948 -0.00247819 0.00169521 -0.00413729 0.000570866 -0.00611808 -0.00413729 0.000418138 -0.00611808 0.00280278 -0.00611808 0.00280278 0.00728727 0.0180841 0.000570866 -0.00611808 -0.00616035 0.00728727 -0.00616035 0.00728727 -0.0110529 0.0070527 0.00728727 0.0180841 0.0070527 0.051677 0.0070527 0.051677 0.0109834 0.0776475 -0.0110529 0.0070527 0.00318648 0.0109834 0.00181948 -0.00247819 0.00086719 0.00157093 -0.00247819 -0.00616035 0.00157093 -0.0110529 0.00157093 -0.0110529 0.00205755 0.00318648 0.00086719 0.00157093 -0.00491556 0.00205755 -0.00491556 0.00205755 0.000390635 -0.00761657 0.00205755 0.00318648 -0.00761657 0.00606132 -0.00761657 0.00606132 -0.00409154 0.000207877 0.000390635 -0.00761657 0.00594771 -0.00409154 0.00318648 0.0109834 0.00606132 0.032093 0.0109834 0.0776475 0.032093 0.108114 0.032093 0.108114 0.0357959 0.135294 0.00606132 0.032093 0.000207877 0.0357959 0.000207877 0.0357959 0.00589766 0.033913 0.0357959 0.135294 0.033913 0.13541 0.033913 0.13541 0.0368946 0.127143 0.00589766 0.033913 -0.000805481 0.0368946 0.00594771 -0.00409154 0.00162711 -0.000625626 -0.00409154 0.000207877 -0.000625626 0.00589766 -0.000625626 0.00589766 -0.00730394 -0.000805481 0.00162711 -0.000625626 0.00535909 -0.00730394 0 0.00201574 0 0.00545037 0.00201574 -0.00546668 0.00545037 -0.00304027 0.00545037 -0.00304027 0.00774786 -2.99692e-05 0 0.00545037 0 0.00774786 -0.00546668 0.00202824 -0.00304027 0.00299793 0.00202824 -0.00491556 0.00299793 0.000390635 0.00299793 0.000390635 -0.0010201 0.00594771 -0.00304027 0.00299793 -2.99692e-05 -0.0010201 -2.99692e-05 -0.0010201 0.00323968 0.000467401 -0.0010201 0.00594771 0.000467401 0.00162711 0.000467401 0.00162711 0.00284171 0.00535909 0.00323968 0.000467401 0.00339662 0.00284171 0 0.00774786 0 0.00771521 0.00774786 -2.99692e-05 0.00771521 0.00323968 0.00771521 0.00323968 0.00605415 0.00339662 0 0.00771521 0 0.00605415 0 0 0.00605415 0.00365942 0 0 0.00365942 0.000194262 0.00365942 0.000194262 0.00302375 0.00312123 0.00605415 0.00365942 0.00339662 0.00302375 0 0 0.000194262 -0.00163326 0 0 -0.00163326 -0.000649992 -0.00163326 -0.000649992 0.000936117 -0.0012392 0.000194262 -0.00163326 0.00312123 0.000936117 0.00312123 0.000936117 -0.00551426 -0.00084134 0.000936117 -0.0012392 -0.00084134 0.00215441 -0.00084134 0.00215441 -0.00670697 -0.00380627 -0.00551426 -0.00084134 0.00193884 -0.00670697 0.00339662 0.00302375 0.00284171 -0.00268984 0.00302375 0.00312123 -0.00268984 -0.00551426 -0.00268984 -0.00551426 0.0105985 0.00193884 0.00284171 -0.00268984 0.00535909 0.0105985 0 0 -0.000649992 0.000384721 0 0 0.000384721 0.000136947 0.000384721 0.000136947 -0.000677916 0.000546426 -0.000649992 0.000384721 -0.0012392 -0.000677916 0 0 0.000136947 -0.000248035 0 0 -0.000248035 -0.000175188 -0.000248035 -0.000175188 0.00053451 4.91808e-05 0.000136947 -0.000248035 0.000546426 0.00053451 0.000546426 0.00053451 -0.000207643 0.000106276 0.00053451 4.91808e-05 0.000106276 0.000297567 0.000106276 0.000297567 0.000136896 -0.000185186 -0.000207643 0.000106276 0.00151556 0.000136896 -0.0012392 -0.000677916 0.00215441 0.000851438 -0.000677916 0.000546426 0.000851438 -0.000207643 0.000851438 -0.000207643 0.00125052 0.00151556 0.00215441 0.000851438 -0.00380627 0.00125052 -0.00380627 0.00125052 -0.00238291 -0.00348432 0.00125052 0.00151556 -0.00348432 0.000356183 -0.00348432 0.000356183 0.000884765 -0.00196123 -0.00238291 -0.00348432 0.0089603 0.000884765 0.00151556 0.000136896 0.000356183 0.00153612 0.000136896 -0.000185186 0.00153612 0.000583329 0.00153612 0.000583329 -0.000245412 0.000655962 0.000356183 0.00153612 -0.00196123 -0.000245412 -0.00196123 -0.000245412 0.00232303 -0.000697564 -0.000245412 0.000655962 -0.000697564 -0.000479828 -0.000697564 -0.000479828 0.00195951 0.000120601 0.00232303 -0.000697564 0.00266019 0.00195951 0.0089603 0.000884765 -0.000779447 0.00636026 0.000884765 -0.00196123 0.00636026 0.00232303 0.00636026 0.00232303 -0.00502702 0.00266019 -0.000779447 0.00636026 -0.0157136 -0.00502702 0.00535909 0.0105985 -0.00730394 -0.00129961 0.0105985 0.00193884 -0.00129961 0.0110767 -0.00129961 0.0110767 -0.0168308 -0.0102707 -0.00730394 -0.00129961 -0.000805481 -0.0168308 0.00193884 -0.00670697 0.0110767 0.00767411 -0.00670697 -0.00380627 0.00767411 -0.00238291 0.00767411 -0.00238291 0.00727433 0.0089603 0.0110767 0.00767411 -0.0102707 0.00727433 -0.0102707 0.00727433 -0.0175634 -0.0188329 0.00727433 0.0089603 -0.0188329 -0.000779447 -0.0188329 -0.000779447 5.94896e-05 -0.0157136 -0.0175634 -0.0188329 0.0547132 5.94896e-05 -0.000805481 -0.0168308 0.0368946 0.0145014 -0.0168308 -0.0102707 0.0145014 -0.0175634 0.0145014 -0.0175634 0.1076 0.0547132 0.0368946 0.0145014 0.127143 0.1076 0 0 -0.000175188 -1.51611e-05 0 0 -1.51611e-05 1.84515e-05 -1.51611e-05 1.84515e-05 -9.1013e-05 -2.63119e-05 -0.000175188 -1.51611e-05 4.91808e-05 -9.1013e-05 0 0 1.84515e-05 3.34249e-06 0 0 3.34249e-06 -1.55554e-06 3.34249e-06 -1.55554e-06 6.5769e-06 2.73389e-06 1.84515e-05 3.34249e-06 -2.63119e-05 6.5769e-06 -2.63119e-05 6.5769e-06 -1.47749e-05 -1.34671e-05 6.5769e-06 2.73389e-06 -1.34671e-05 7.96094e-07 -1.34671e-05 7.96094e-07 3.38202e-06 -3.48672e-06 -1.47749e-05 -1.34671e-05 3.39955e-05 3.38202e-06 4.91808e-05 -9.1013e-05 0.000297567 0.000109135 -9.1013e-05 -2.63119e-05 0.000109135 -1.47749e-05 0.000109135 -1.47749e-05 -7.16265e-06 3.39955e-05 0.000297567 0.000109135 -0.000185186 -7.16265e-06 0 0 -1.55554e-06 -2.59747e-07 0 0 -2.59747e-07 1.3767e-07 -2.59747e-07 1.3767e-07 -5.78701e-07 -1.89206e-07 -1.55554e-06 -2.59747e-07 2.73389e-06 -5.78701e-07 0 0 1.3767e-07 3.32355e-09 0 0 3.32355e-09 0 3.32355e-09 0 5.91276e-08 0 1.3767e-07 3.32355e-09 -1.89206e-07 5.91276e-08 -1.89206e-07 5.91276e-08 -1.27297e-07 -6.75852e-08 5.91276e-08 0 -6.75852e-08 0 -6.75852e-08 0 -1.84131e-08 0 -1.27297e-07 -6.75852e-08 3.09605e-07 -1.84131e-08 2.73389e-06 -5.78701e-07 7.96094e-07 1.1619e-06 -5.78701e-07 -1.89206e-07 1.1619e-06 -1.27297e-07 1.1619e-06 -1.27297e-07 -2.2507e-07 3.09605e-07 7.96094e-07 1.1619e-06 -3.48672e-06 -2.2507e-07 -3.48672e-06 -2.2507e-07 3.92667e-06 -3.63741e-07 -2.2507e-07 3.09605e-07 -3.63741e-07 -2.623e-07 -3.63741e-07 -2.623e-07 1.84567e-06 -8.09005e-08 3.92667e-06 -3.63741e-07 -5.06529e-07 1.84567e-06 3.09605e-07 -1.84131e-08 -2.623e-07 5.92558e-08 -1.84131e-08 0 5.92558e-08 0 5.92558e-08 0 -1.0467e-07 0 -2.623e-07 5.92558e-08 -8.09005e-08 -1.0467e-07 -8.09005e-08 -1.0467e-07 5.04047e-07 -4.74345e-08 -1.0467e-07 0 -4.74345e-08 0 -4.74345e-08 0 9.62361e-08 0 5.04047e-07 -4.74345e-08 5.62138e-09 9.62361e-08 -5.06529e-07 1.84567e-06 -6.8697e-06 -6.16232e-08 1.84567e-06 -8.09005e-08 -6.16232e-08 5.04047e-07 -6.16232e-08 5.04047e-07 -1.50281e-06 5.62138e-09 -6.8697e-06 -6.16232e-08 1.43144e-06 -1.50281e-06 -0.000185186 -7.16265e-06 0.000583329 -2.39971e-05 -7.16265e-06 3.39955e-05 -2.39971e-05 -5.00043e-05 -2.39971e-05 -5.00043e-05 0.000299489 -3.25767e-06 0.000583329 -2.39971e-05 0.000655962 0.000299489 3.39955e-05 3.38202e-06 -5.00043e-05 1.25617e-06 3.38202e-06 -3.48672e-06 1.25617e-06 3.92667e-06 1.25617e-06 3.92667e-06 -2.52639e-05 -5.06529e-07 -5.00043e-05 1.25617e-06 -3.25767e-06 -2.52639e-05 -3.25767e-06 -2.52639e-05 8.1175e-05 1.80033e-06 -2.52639e-05 -5.06529e-07 1.80033e-06 -6.8697e-06 1.80033e-06 -6.8697e-06 1.78834e-05 1.43144e-06 8.1175e-05 1.80033e-06 -1.82569e-05 1.78834e-05 0.000655962 0.000299489 -0.000479828 6.83616e-05 0.000299489 -3.25767e-06 6.83616e-05 8.1175e-05 6.83616e-05 8.1175e-05 -0.000184342 -1.82569e-05 -0.000479828 6.83616e-05 0.000120601 -0.000184342 0.000120601 -0.000184342 0.000917571 0.000122554 -0.000184342 -1.82569e-05 0.000122554 -6.51519e-05 0.000122554 -6.51519e-05 0.000349927 4.81662e-05 0.000917571 0.000122554 -0.000393359 0.000349927 -1.82569e-05 1.78834e-05 -6.51519e-05 -9.79544e-06 1.78834e-05 1.43144e-06 -9.79544e-06 5.1881e-06 -9.79544e-06 5.1881e-06 -2.60975e-05 -2.24784e-06 -6.51519e-05 -9.79544e-06 4.81662e-05 -2.60975e-05 4.81662e-05 -2.60975e-05 0.000193917 7.16965e-06 -2.60975e-05 -2.24784e-06 7.16965e-06 -1.40356e-05 7.16965e-06 -1.40356e-05 0.000100915 -8.65747e-06 0.000193917 7.16965e-06 0.000107179 0.000100915 -0.000393359 0.000349927 -0.00270335 -9.34317e-05 0.000349927 4.81662e-05 -9.34317e-05 0.000193917 -9.34317e-05 0.000193917 -0.00138938 0.000107179 -0.00270335 -9.34317e-05 -0.00315267 -0.00138938 1.43144e-06 -1.50281e-06 5.1881e-06 3.44982e-07 -1.50281e-06 5.62138e-09 3.44982e-07 -3.99813e-07 3.44982e-07 -3.99813e-07 2.02816e-06 -7.23418e-08 5.1881e-06 3.44982e-07 -2.24784e-06 2.02816e-06 5.62138e-09 9.62361e-08 -3.99813e-07 3.23473e-08 9.62361e-08 0 3.23473e-08 0 3.23473e-08 0 -1.15113e-07 0 -3.99813e-07 3.23473e-08 -7.23418e-08 -1.15113e-07 -7.23418e-08 -1.15113e-07 9.27318e-07 -1.56366e-07 -1.15113e-07 0 -1.56366e-07 0 -1.56366e-07 0 2.64775e-07 0 9.27318e-07 -1.56366e-07 1.13647e-06 2.64775e-07 -2.24784e-06 2.02816e-06 -1.40356e-05 4.94133e-07 2.02816e-06 -7.23418e-08 4.94133e-07 9.27318e-07 4.94133e-07 9.27318e-07 -6.56538e-06 1.13647e-06 -1.40356e-05 4.94133e-07 -8.65747e-06 -6.56538e-06 -8.65747e-06 -6.56538e-06 3.29439e-05 -1.04917e-05 -6.56538e-06 1.13647e-06 -1.04917e-05 -1.54993e-06 -1.04917e-05 -1.54993e-06 -1.106e-06 -4.74868e-06 3.29439e-05 -1.04917e-05 7.44824e-05 -1.106e-06 1.13647e-06 2.64775e-07 -1.54993e-06 7.90034e-07 2.64775e-07 0 7.90034e-07 0 7.90034e-07 0 4.87426e-07 0 -1.54993e-06 7.90034e-07 -4.74868e-06 4.87426e-07 -4.74868e-06 4.87426e-07 -4.6481e-06 -3.77909e-07 4.87426e-07 0 -3.77909e-07 0 -3.77909e-07 0 -7.829e-07 0 -4.6481e-06 -3.77909e-07 -2.36879e-06 -7.829e-07 7.44824e-05 -1.106e-06 7.16275e-05 1.28645e-05 -1.106e-06 -4.74868e-06 1.28645e-05 -4.6481e-06 1.28645e-05 -4.6481e-06 1.77831e-05 -2.36879e-06 7.16275e-05 1.28645e-05 4.10682e-05 1.77831e-05 -0.00315267 -0.00138938 0.00178936 -0.00255542 -0.00138938 0.000107179 -0.00255542 -0.000447845 -0.00255542 -0.000447845 -0.00197355 -0.00112761 0.00178936 -0.00255542 0.0120296 -0.00197355 0.000107179 0.000100915 -0.000447845 0.000144772 0.000100915 -8.65747e-06 0.000144772 3.29439e-05 0.000144772 3.29439e-05 1.79315e-05 7.44824e-05 -0.000447845 0.000144772 -0.00112761 1.79315e-05 -0.00112761 1.79315e-05 -0.00136321 -0.000183524 1.79315e-05 7.44824e-05 -0.000183524 7.16275e-05 -0.000183524 7.16275e-05 -0.000288336 4.10682e-05 -0.00136321 -0.000183524 -0.00115132 -0.000288336 0.0120296 -0.00197355 0.0223491 0.000195474 -0.00197355 -0.00112761 0.000195474 -0.00136321 0.000195474 -0.00136321 0.0022169 -0.00115132 0.0223491 0.000195474 0.0280428 0.0022169 0.127143 0.1076 0.273175 0.248735 0.1076 0.0547132 0.248735 0.197491 0.248735 0.197491 0.396939 0.348827 0.273175 0.248735 0.438118 0.396939 0.0547132 5.94896e-05 0.197491 0.104809 5.94896e-05 -0.0157136 0.104809 0.0219545 0.104809 0.0219545 0.26042 0.132864 0.197491 0.104809 0.348827 0.26042 0.348827 0.26042 0.483622 0.406402 0.26042 0.132864 0.406402 0.274794 0.406402 0.274794 0.516968 0.398051 0.483622 0.406402 0.602127 0.516968 0.438118 0.396939 0.595966 0.546709 0.396939 0.348827 0.546709 0.483622 0.546709 0.483622 0.683269 0.602127 0.595966 0.546709 0.722854 0.683269 -0.0157136 -0.00502702 0.0219545 -0.00883258 -0.00502702 0.00266019 -0.00883258 -0.00558607 -0.00883258 -0.00558607 0.0331797 -0.0037716 0.0219545 -0.00883258 0.132864 0.0331797 0.00266019 0.00195951 -0.00558607 0.000352304 0.00195951 0.000120601 0.000352304 0.000917571 0.000352304 0.000917571 -0.0044767 