<?xml version="1.0" encoding="UTF-8"?>
<VTKFile type="UnstructuredGrid" version="0.1" byte_order="LittleEndian" compressor="vtkZLibDataCompressor">
    <UnstructuredGrid>
        <Piece NumberOfPoints="4096" NumberOfCells="1024">
            <Points>
                <DataArray type="Float64" Name="Array" NumberOfComponents="3" format="ascii" RangeMin="0" RangeMax="1">0 0 0 0.03125 0 0 0 0.03125 0 0.03125 0.03125 0 0.03125 0 0 0.0625 0 0 0.03125 0.03125 0 0.0625 0.03125 0 0.03125 0.03125 0 0.0625 0.03125 0 0.03125 0.0625 0 0.0625 0.0625 0 0 0.03125 0 0.03125 0.03125 0 0 0.0625 0 0.03125 0.0625 0 0.0625 0 0 0.09375 0 0 0.0625 0.03125 0 0.09375 0.03125 0 0.09375 0 0 0.125 0 0 0.09375 0.03125 0 0.125 0.03125 0 0.09375 0.03125 0 0.125 0.03125 0 0.09375 0.0625 0 0.125 0.0625 0 0.0625 0.03125 0 0.09375 0.03125 0 0.0625 0.0625 0 0.09375 0.0625 0 0.0625 0.0625 0 0.09375 0.0625 0 0.0625 0.09375 0 0.09375 0.09375 0 0.09375 0.0625 0 0.125 0.0625 0 0.09375 0.09375 0 0.125 0.09375 0 0.09375 0.09375 0 0.125 0.09375 0 0.09375 0.125 0 0.125 0.125 0 0.0625 0.09375 0 0.09375 0.09375 0 0.0625 0.125 0 0.09375 0.125 0 0 0.0625 0 0.03125 0.0625 0 0 0.09375 0 0.03125 0.09375 0 0.03125 0.0625 0 0.0625 0.0625 0 0.03125 0.09375 0 0.0625 0.09375 0 0.03125 0.09375 0 0.0625 0.09375 0 0.03125 0.125 0 0.0625 0.125 0 0 0.09375 0 0.03125 0.09375 0 0 0.125 0 0.03125 0.125 0 0.125 0 0 0.15625 0 0 0.125 0.03125 0 0.15625 0.03125 0 0.15625 0 0 0.1875 0 0 0.15625 0.03125 0 0.1875 0.03125 0 0.15625 0.03125 0 0.1875 0.03125 0 0.15625 0.0625 0 0.1875 0.0625 0 0.125 0.03125 0 0.15625 0.03125 0 0.125 0.0625 0 0.15625 0.0625 0 0.1875 0 0 0.21875 0 0 0.1875 0.03125 0 0.21875 0.03125 0 0.21875 0 0 0.25 0 0 0.21875 0.03125 0 0.25 0.03125 0 0.21875 0.03125 0 0.25 0.03125 0 0.21875 0.0625 0 0.25 0.0625 0 0.1875 0.03125 0 0.21875 0.03125 0 0.1875 0.0625 0 0.21875 0.0625 0 0.1875 0.0625 0 0.21875 0.0625 0 0.1875 0.09375 0 0.21875 0.09375 0 0.21875 0.0625 0 0.25 0.0625 0 0.21875 0.09375 0 0.25 0.09375 0 0.21875 0.09375 0 0.25 0.09375 0 0.21875 0.125 0 0.25 0.125 0 0.1875 0.09375 0 0.21875 0.09375 0 0.1875 0.125 0 0.21875 0.125 0 0.125 0.0625 0 0.15625 0.0625 0 0.125 0.09375 0 0.15625 0.09375 0 0.15625 0.0625 0 0.1875 0.0625 0 0.15625 0.09375 0 0.1875 0.09375 0 0.15625 0.09375 0 0.1875 0.09375 0 0.15625 0.125 0 0.1875 0.125 0 0.125 0.09375 0 0.15625 0.09375 0 0.125 0.125 0 0.15625 0.125 0 0.125 0.125 0 0.15625 0.125 0 0.125 0.15625 0 0.15625 0.15625 0 0.15625 0.125 0 0.1875 0.125 0 0.15625 0.15625 0 0.1875 0.15625 0 0.15625 0.15625 0 0.1875 0.15625 0 0.15625 0.1875 0 0.1875 0.1875 0 0.125 0.15625 0 0.15625 0.15625 0 0.125 0.1875 0 0.15625 0.1875 0 0.1875 0.125 0 0.21875 0.125 0 0.1875 0.15625 0 0.21875 0.15625 0 0.21875 0.125 0 0.25 0.125 0 0.21875 0.15625 0 0.25 0.15625 0 0.21875 0.15625 0 0.25 0.15625 0 0.21875 0.1875 0 0.25 0.1875 0 0.1875 0.15625 0 0.21875 0.15625 0 0.1875 0.1875 0 0.21875 0.1875 0 0.1875 0.1875 0 0.21875 0.1875 0 0.1875 0.21875 0 0.21875 0.21875 0 0.21875 0.1875 0 0.25 0.1875 0 0.21875 0.21875 0 0.25 0.21875 0 0.21875 0.21875 0 0.25 0.21875 0 0.21875 0.25 0 0.25 0.25 0 0.1875 0.21875 0 0.21875 0.21875 0 0.1875 0.25 0 0.21875 0.25 0 0.125 0.1875 0 0.15625 0.1875 0 0.125 0.21875 0 0.15625 0.21875 0 0.15625 0.1875 0 0.1875 0.1875 0 0.15625 0.21875 0 0.1875 0.21875 0 0.15625 0.21875 0 0.1875 0.21875 0 0.15625 0.25 0 0.1875 0.25 0 0.125 0.21875 0 0.15625 0.21875 0 0.125 0.25 0 0.15625 0.25 0 0 0.125 0 0.03125 0.125 0 0 0.15625 0 0.03125 0.15625 0 0.03125 0.125 0 0.0625 0.125 0 0.03125 0.15625 0 0.0625 0.15625 0 0.03125 0.15625 0 0.0625 0.15625 0 0.03125 0.1875 0 0.0625 0.1875 0 0 0.15625 0 0.03125 0.15625 0 0 0.1875 0 0.03125 0.1875 0 0.0625 0.125 0 0.09375 0.125 0 0.0625 0.15625 0 0.09375 0.15625 0 0.09375 0.125 0 0.125 0.125 0 0.09375 0.15625 0 0.125 0.15625 0 0.09375 0.15625 0 0.125 0.15625 0 0.09375 0.1875 0 0.125 0.1875 0 0.0625 0.15625 0 0.09375 0.15625 0 0.0625 0.1875 0 0.09375 0.1875 0 0.0625 0.1875 0 0.09375 0.1875 0 0.0625 0.21875 0 0.09375 0.21875 0 0.09375 0.1875 0 0.125 0.1875 0 0.09375 0.21875 0 0.125 0.21875 0 0.09375 0.21875 0 0.125 0.21875 0 0.09375 0.25 0 0.125 0.25 0 0.0625 0.21875 0 0.09375 0.21875 0 0.0625 0.25 0 0.09375 0.25 0 0 0.1875 0 0.03125 0.1875 0 0 0.21875 0 0.03125 0.21875 0 0.03125 0.1875 0 0.0625 0.1875 0 0.03125 0.21875 0 0.0625 0.21875 0 0.03125 0.21875 0 0.0625 0.21875 0 0.03125 0.25 0 0.0625 0.25 0 0 0.21875 0 0.03125 0.21875 0 0 0.25 0 0.03125 0.25 0 0.25 0 0 0.28125 0 0 0.25 0.03125 0 0.28125 0.03125 0 0.28125 0 0 0.3125 0 0 0.28125 0.03125 0 0.3125 0.03125 0 0.28125 0.03125 0 0.3125 0.03125 0 0.28125 0.0625 0 0.3125 0.0625 0 0.25 0.03125 0 0.28125 0.03125 0 0.25 0.0625 0 0.28125 0.0625 0 0.3125 0 0 0.34375 0 0 0.3125 0.03125 0 0.34375 0.03125 0 0.34375 0 0 0.375 0 0 0.34375 0.03125 0 0.375 0.03125 0 0.34375 0.03125 0 0.375 0.03125 0 0.34375 0.0625 0 0.375 0.0625 0 0.3125 0.03125 0 0.34375 0.03125 0 0.3125 0.0625 0 0.34375 0.0625 0 0.3125 0.0625 0 0.34375 0.0625 0 0.3125 0.09375 0 0.34375 0.09375 0 0.34375 0.0625 0 0.375 0.0625 0 0.34375 0.09375 0 0.375 0.09375 0 0.34375 0.09375 0 0.375 0.09375 0 0.34375 0.125 0 0.375 0.125 0 0.3125 0.09375 0 0.34375 0.09375 0 0.3125 0.125 0 0.34375 0.125 0 0.25 0.0625 0 0.28125 0.0625 0 0.25 0.09375 0 0.28125 0.09375 0 0.28125 0.0625 0 0.3125 0.0625 0 0.28125 0.09375 0 0.3125 0.09375 0 0.28125 0.09375 0 0.3125 0.09375 0 0.28125 0.125 0 0.3125 0.125 0 0.25 0.09375 0 0.28125 0.09375 0 0.25 0.125 0 0.28125 0.125 0 0.375 0 0 0.40625 0 0 0.375 0.03125 0 0.40625 0.03125 0 0.40625 0 0 0.4375 0 0 0.40625 0.03125 0 0.4375 0.03125 0 0.40625 0.03125 0 0.4375 0.03125 0 0.40625 0.0625 0 0.4375 0.0625 0 0.375 0.03125 0 0.40625 0.03125 0 0.375 0.0625 0 0.40625 0.0625 0 0.4375 0 0 0.46875 0 0 0.4375 0.03125 0 0.46875 0.03125 0 0.46875 0 0 0.5 0 0 0.46875 0.03125 0 0.5 0.03125 0 0.46875 0.03125 0 0.5 0.03125 0 0.46875 0.0625 0 0.5 0.0625 0 0.4375 0.03125 0 0.46875 0.03125 0 0.4375 0.0625 0 0.46875 0.0625 0 0.4375 0.0625 0 0.46875 0.0625 0 0.4375 0.09375 0 0.46875 0.09375 0 0.46875 0.0625 0 0.5 0.0625 0 0.46875 0.09375 0 0.5 0.09375 0 0.46875 0.09375 0 0.5 0.09375 0 0.46875 0.125 0 0.5 0.125 0 0.4375 0.09375 0 0.46875 0.09375 0 0.4375 0.125 0 0.46875 0.125 0 0.375 0.0625 0 0.40625 0.0625 0 0.375 0.09375 0 0.40625 0.09375 0 0.40625 0.0625 0 0.4375 0.0625 0 0.40625 0.09375 0 0.4375 0.09375 0 0.40625 0.09375 0 0.4375 0.09375 0 0.40625 0.125 0 0.4375 0.125 0 0.375 0.09375 0 0.40625 0.09375 0 0.375 0.125 0 0.40625 0.125 0 0.375 0.125 0 0.40625 0.125 0 0.375 0.15625 0 0.40625 0.15625 0 0.40625 0.125 0 0.4375 0.125 0 0.40625 0.15625 0 0.4375 0.15625 0 0.40625 0.15625 0 0.4375 0.15625 0 0.40625 0.1875 0 0.4375 0.1875 0 0.375 0.15625 0 0.40625 0.15625 0 0.375 0.1875 0 0.40625 0.1875 0 0.4375 0.125 0 0.46875 0.125 0 0.4375 0.15625 0 0.46875 0.15625 0 0.46875 0.125 0 0.5 0.125 0 0.46875 0.15625 0 0.5 0.15625 0 0.46875 0.15625 0 0.5 0.15625 0 0.46875 0.1875 0 0.5 0.1875 0 0.4375 0.15625 0 0.46875 0.15625 0 0.4375 0.1875 0 0.46875 0.1875 0 0.4375 0.1875 0 0.46875 0.1875 0 0.4375 0.21875 0 0.46875 0.21875 0 0.46875 0.1875 0 0.5 0.1875 0 0.46875 0.21875 0 0.5 0.21875 0 0.46875 0.21875 0 0.5 0.21875 0 0.46875 0.25 0 0.5 0.25 0 0.4375 0.21875 0 0.46875 0.21875 0 0.4375 0.25 0 0.46875 0.25 0 0.375 0.1875 0 0.40625 0.1875 0 0.375 0.21875 0 0.40625 0.21875 0 0.40625 0.1875 0 0.4375 0.1875 0 0.40625 0.21875 0 0.4375 0.21875 0 0.40625 0.21875 0 0.4375 0.21875 0 0.40625 0.25 0 0.4375 0.25 0 0.375 0.21875 0 0.40625 0.21875 0 0.375 0.25 0 0.40625 0.25 0 0.25 0.125 0 0.28125 0.125 0 0.25 0.15625 0 0.28125 0.15625 0 0.28125 0.125 0 0.3125 0.125 0 0.28125 0.15625 0 0.3125 0.15625 0 0.28125 0.15625 0 0.3125 0.15625 0 0.28125 0.1875 0 0.3125 0.1875 0 0.25 0.15625 0 0.28125 0.15625 0 0.25 0.1875 0 0.28125 0.1875 0 0.3125 0.125 0 0.34375 0.125 0 0.3125 0.15625 0 0.34375 0.15625 0 0.34375 0.125 0 0.375 0.125 0 0.34375 0.15625 0 0.375 0.15625 0 0.34375 0.15625 0 0.375 0.15625 0 0.34375 0.1875 0 0.375 0.1875 0 0.3125 0.15625 0 0.34375 0.15625 0 0.3125 0.1875 0 0.34375 0.1875 0 0.3125 0.1875 0 0.34375 0.1875 0 0.3125 0.21875 0 0.34375 0.21875 0 0.34375 0.1875 0 0.375 0.1875 0 0.34375 0.21875 0 0.375 0.21875 0 0.34375 0.21875 0 0.375 0.21875 0 0.34375 0.25 0 0.375 0.25 0 0.3125 0.21875 0 0.34375 0.21875 0 0.3125 0.25 0 0.34375 0.25 0 0.25 0.1875 0 0.28125 0.1875 0 0.25 0.21875 0 0.28125 0.21875 0 0.28125 0.1875 0 0.3125 0.1875 0 0.28125 0.21875 0 0.3125 0.21875 0 0.28125 0.21875 0 0.3125 0.21875 0 0.28125 0.25 0 0.3125 0.25 0 0.25 0.21875 0 0.28125 0.21875 0 0.25 0.25 0 0.28125 0.25 0 0.25 0.25 0 0.28125 0.25 0 0.25 0.28125 0 0.28125 0.28125 0 0.28125 0.25 0 0.3125 0.25 0 0.28125 0.28125 0 0.3125 0.28125 0 0.28125 0.28125 0 0.3125 0.28125 0 0.28125 0.3125 0 0.3125 0.3125 0 0.25 0.28125 0 0.28125 0.28125 0 0.25 0.3125 0 0.28125 0.3125 0 0.3125 0.25 0 0.34375 0.25 0 0.3125 0.28125 0 0.34375 0.28125 0 0.34375 0.25 0 0.375 0.25 0 0.34375 0.28125 0 0.375 0.28125 0 0.34375 0.28125 0 0.375 0.28125 0 0.34375 0.3125 0 0.375 0.3125 0 0.3125 0.28125 0 0.34375 0.28125 0 0.3125 0.3125 0 0.34375 0.3125 0 0.3125 0.3125 0 0.34375 0.3125 0 0.3125 0.34375 0 0.34375 0.34375 0 0.34375 0.3125 0 0.375 0.3125 0 0.34375 0.34375 0 0.375 0.34375 0 0.34375 0.34375 0 0.375 0.34375 0 0.34375 0.375 0 0.375 0.375 0 0.3125 0.34375 0 0.34375 0.34375 0 0.3125 0.375 0 0.34375 0.375 0 0.25 0.3125 0 0.28125 0.3125 0 0.25 0.34375 0 0.28125 0.34375 0 0.28125 0.3125 0 0.3125 0.3125 0 0.28125 0.34375 0 0.3125 0.34375 0 0.28125 0.34375 0 0.3125 0.34375 0 0.28125 0.375 0 0.3125 0.375 0 0.25 0.34375 0 0.28125 0.34375 0 0.25 0.375 0 0.28125 0.375 0 0.375 0.25 0 0.40625 0.25 0 0.375 0.28125 0 0.40625 0.28125 0 0.40625 0.25 0 0.4375 0.25 0 0.40625 0.28125 0 0.4375 0.28125 0 0.40625 0.28125 0 0.4375 0.28125 0 0.40625 0.3125 0 0.4375 0.3125 0 0.375 0.28125 0 0.40625 0.28125 0 0.375 0.3125 0 0.40625 0.3125 0 0.4375 0.25 0 0.46875 0.25 0 0.4375 0.28125 0 0.46875 0.28125 0 0.46875 0.25 0 0.5 0.25 0 0.46875 0.28125 0 0.5 0.28125 0 0.46875 0.28125 0 0.5 0.28125 0 0.46875 0.3125 0
[...]
            <PointData>
                <DataArray Name="u" type="Float64" format="ascii">0 0 0 -8.09822e-05 0 0 -8.09822e-05 -7.78016e-05 -8.09822e-05 -7.78016e-05 -7.78016e-05 -0.000313079 0 -8.09822e-05 0 -7.78016e-05 0 0 -7.78016e-05 0.000217381 0 0 0.000217381 -0.000317371 0.000217381 -0.000317371 0.000639162 6.84965e-05 -7.78016e-05 0.000217381 -0.000313079 0.000639162 -0.000313079 0.000639162 0.000639162 -0.00114307 0.000639162 6.84965e-05 -0.00114307 0.000544857 -0.00114307 0.000544857 0.000544857 -0.000904165 0.000639162 -0.00114307 6.84965e-05 0.000544857 0 -7.78016e-05 0 0.000217381 -7.78016e-05 -0.000313079 0.000217381 0.000639162 0.000217381 0.000639162 -0.000317371 6.84965e-05 0 0.000217381 0 -0.000317371 0 0 -0.000317371 0.000362403 0 0 0.000362403 0.000680786 0.000362403 0.000680786 -0.00103949 0.00106397 -0.000317371 0.000362403 6.84965e-05 -0.00103949 0 0 0.000680786 -0.00113004 0 0 -0.00113004 -0.000533937 -0.00113004 -0.000533937 0.00183232 -0.00126061 0.000680786 -0.00113004 0.00106397 0.00183232 0.00106397 0.00183232 -0.002687 0.00131398 0.00183232 -0.00126061 0.00131398 0.00269247 0.00131398 0.00269247 -0.0035858 -7.76231e-05 -0.002687 0.00131398 0.000299009 -0.0035858 6.84965e-05 -0.00103949 0.000544857 0.000100342 -0.00103949 0.00106397 0.000100342 -0.002687 0.000100342 -0.002687 0.000919625 0.000299009 0.000544857 0.000100342 -0.000904165 0.000919625 -0.000904165 0.000919625 0.000919625 -1.9339e-05 0.000919625 0.000299009 -1.9339e-05 0.00173185 -1.9339e-05 0.00173185 0.00173185 0.000118331 0.000919625 -1.9339e-05 0.000299009 0.00173185 0.000299009 -0.0035858 0.00173185 -0.000619732 -0.0035858 -7.76231e-05 -0.000619732 -0.00256557 -0.000619732 -0.00256557 0.00215672 0.000324803 0.00173185 -0.000619732 0.000118331 0.00215672 0.000118331 0.00215672 0.00215672 0.00227402 0.00215672 0.000324803 0.00227402 9.24132e-05 0.00227402 9.24132e-05 9.24132e-05 0.000438508 0.00215672 0.00227402 0.000324803 9.24132e-05 0.000299009 0.00173185 -0.0035858 -0.000619732 0.00173185 0.000118331 -0.000619732 0.00215672 -0.000619732 0.00215672 -0.00256557 0.000324803 -0.0035858 -0.000619732 -7.76231e-05 -0.00256557 0 -0.000317371 0 0.000362403 -0.000317371 6.84965e-05 0.000362403 -0.00103949 0.000362403 -0.00103949 0.000680786 0.00106397 0 0.000362403 0 0.000680786 6.84965e-05 0.000544857 -0.00103949 0.000100342 0.000544857 -0.000904165 0.000100342 0.000919625 0.000100342 0.000919625 -0.002687 0.000299009 -0.00103949 0.000100342 0.00106397 -0.002687 0.00106397 -0.002687 0.00183232 0.00131398 -0.002687 0.000299009 0.00131398 -0.0035858 0.00131398 -0.0035858 0.00269247 -7.76231e-05 0.00183232 0.00131398 -0.00126061 0.00269247 0 0.000680786 0 -0.00113004 0.000680786 0.00106397 -0.00113004 0.00183232 -0.00113004 0.00183232 -0.000533937 -0.00126061 0 -0.00113004 0 -0.000533937 0 0 -0.000533937 0.00137881 0 0 0.00137881 0.000375075 0.00137881 0.000375075 -0.0012959 0.00245945 -0.000533937 0.00137881 -0.00126061 -0.0012959 0 0 0.000375075 -0.00129854 0 0 -0.00129854 -0.000745349 -0.00129854 -0.000745349 0.00216524 -0.00180467 0.000375075 -0.00129854 0.00245945 0.00216524 0.00245945 0.00216524 -0.00321883 0.00125429 0.00216524 -0.00180467 0.00125429 0.00349887 0.00125429 0.00349887 -0.00360691 -0.000740474 -0.00321883 0.00125429 -0.00126706 -0.00360691 -0.00126061 -0.0012959 0.00269247 -0.00241644 -0.0012959 0.00245945 -0.00241644 -0.00321883 -0.00241644 -0.00321883 0.00305673 -0.00126706 0.00269247 -0.00241644 -7.76231e-05 0.00305673 0 0 -0.000745349 0.000900644 0 0 0.000900644 0.000469424 0.000900644 0.000469424 -0.00122486 0.00307191 -0.000745349 0.000900644 -0.00180467 -0.00122486 0 0 0.000469424 -0.00181794 0 0 -0.00181794 -0.0015551 -0.00181794 -0.0015551 0.00241406 -0.00263996 0.000469424 -0.00181794 0.00307191 0.00241406 0.00307191 0.00241406 -0.0038349 0.00176836 0.00241406 -0.00263996 0.00176836 0.00587248 0.00176836 0.00587248 -0.00395395 -0.000501981 -0.0038349 0.00176836 -0.000716345 -0.00395395 -0.00180467 -0.00122486 0.00349887 -0.000699065 -0.00122486 0.00307191 -0.000699065 -0.0038349 -0.000699065 -0.0038349 0.00168597 -0.000716345 0.00349887 -0.000699065 -0.000740474 0.00168597 -0.000740474 0.00168597 -0.00127315 -0.000646402 0.00168597 -0.000716345 -0.000646402 0.00136022 -0.000646402 0.00136022 0.00308914 -0.00293841 -0.00127315 -0.000646402 0.00271361 0.00308914 -0.000716345 -0.00395395 0.00136022 0.00109793 -0.00395395 -0.000501981 0.00109793 -0.00211297 0.00109793 -0.00211297 -0.00292776 0.000760633 0.00136022 0.00109793 -0.00293841 -0.00292776 -0.00293841 -0.00292776 0.00411529 -0.00369075 -0.00292776 0.000760633 -0.00369075 -0.00498347 -0.00369075 -0.00498347 0.00543511 0.000231693 0.00411529 -0.00369075 0.00282406 0.00543511 0.00271361 0.00308914 -0.00332216 0.00141629 0.00308914 -0.00293841 0.00141629 0.00411529 0.00141629 0.00411529 -0.00447979 0.00282406 -0.00332216 0.00141629 -0.000312317 -0.00447979 -7.76231e-05 0.00305673 -0.00256557 0.00183798 0.00305673 -0.00126706 0.00183798 0.00246411 0.00183798 0.00246411 -0.000463543 0.00105363 -0.00256557 0.00183798 0.000324803 -0.000463543 -0.00126706 -0.00360691 0.00246411 -0.000538823 -0.00360691 -0.000740474 -0.000538823 -0.00127315 -0.000538823 -0.00127315 1.00844e-05 0.00271361 0.00246411 -0.000538823 0.00105363 1.00844e-05 0.00105363 1.00844e-05 0.00352312 0.00295908 1.00844e-05 0.00271361 0.00295908 -0.00332216 0.00295908 -0.00332216 0.00368208 -0.000312317 0.00352312 0.00295908 -0.00039791 0.00368208 0.000324803 -0.000463543 9.24132e-05 -0.00187243 -0.000463543 0.00105363 -0.00187243 0.00352312 -0.00187243 0.00352312 -0.000473083 -0.00039791 9.24132e-05 -0.00187243 0.000438508 -0.000473083 0.000438508 -0.000473083 -0.000473083 0.00414502 -0.000473083 -0.00039791 0.00414502 -0.00151365 0.00414502 -0.00151365 -0.00151365 0.00442604 -0.000473083 0.00414502 -0.00039791 -0.00151365 -0.00039791 0.00368208 -0.00151365 -0.00415756 0.00368208 -0.000312317 -0.00415756 0.00462811 -0.00415756 0.00462811 0.000765805 0.000323086 -0.00151365 -0.00415756 0.00442604 0.000765805 0.00442604 0.000765805 0.000765805 0.0077158 0.000765805 0.000323086 0.0077158 0.000607871 0.0077158 0.000607871 0.000607871 -0.00181364 0.000765805 0.0077158 0.000323086 0.000607871 -0.00039791 -0.00151365 0.00368208 -0.00415756 -0.00151365 0.00442604 -0.00415756 0.000765805 -0.00415756 0.000765805 0.00462811 0.000323086 0.00368208 -0.00415756 -0.000312317 0.00462811 -0.000312317 -0.00447979 0.00462811 0.00327121 -0.00447979 0.00282406 0.00327121 -0.0023534 0.00327121 -0.0023534 0.00561054 -0.000197664 0.00462811 0.00327121 0.000323086 0.00561054 0.00282406 0.00543511 -0.0023534 0.00123395 0.00543511 0.000231693 0.00123395 0.00149528 0.00123395 0.00149528 -0.00485118 -0.0029815 -0.0023534 0.00123395 -0.000197664 -0.00485118 -0.000197664 -0.00485118 -0.00366546 -0.0073009 -0.00485118 -0.0029815 -0.0073009 -0.00135727 -0.0073009 -0.00135727 0.000304689 0.00799034 -0.00366546 -0.0073009 -0.000996932 0.000304689 0.000323086 0.00561054 0.000607871 -0.00269492 0.00561054 -0.000197664 -0.00269492 -0.00366546 -0.00269492 -0.00366546 -0.00552485 -0.000996932 0.000607871 -0.00269492 -0.00181364 -0.00552485 -0.00181364 -0.00552485 -0.00552485 -0.00316008 -0.00552485 -0.000996932 -0.00316008 0.0116487 -0.00316008 0.0116487 0.0116487 0.0356699 -0.00552485 -0.00316008 -0.000996932 0.0116487 -0.000996932 0.000304689 0.0116487 0.0374954 0.000304689 0.00799034 0.0374954 0.0616305 0.0374954 0.0616305 0.0912323 0.158904 0.0116487 0.0374954 0.0356699 0.0912323 0.0356699 0.0912323 0.0912323 0.162017 0.0912323 0.158904 0.162017 0.259356 0.162017 0.259356 0.259356 0.367194 0.0912323 0.162017 0.158904 0.259356 -0.000996932 0.0116487 0.000304689 0.0374954 0.0116487 0.0356699 0.0374954 0.0912323 0.0374954 0.0912323 0.0616305 0.158904 0.000304689 0.0374954 0.00799034 0.0616305 -0.000312317 0.00462811 -0.00447979 0.00327121 0.00462811 0.000323086 0.00327121 0.00561054 0.00327121 0.00561054 -0.0023534 -0.000197664 -0.00447979 0.00327121 0.00282406 -0.0023534 0.000323086 0.000607871 0.00561054 -0.00269492 0.000607871 -0.00181364 -0.00269492 -0.00552485 -0.00269492 -0.00552485 -0.00366546 -0.000996932 0.00561054 -0.00269492 -0.000197664 -0.00366546 -0.000197664 -0.00366546 -0.00485118 -0.0073009 -0.00366546 -0.000996932 -0.0073009 0.000304689 -0.0073009 0.000304689 -0.00135727 0.00799034 -0.00485118 -0.0073009 -0.0029815 -0.00135727 0.00282406 -0.0023534 0.00543511 0.00123395 -0.0023534 -0.000197664 0.00123395 -0.00485118 0.00123395 -0.00485118 0.00149528 -0.0029815 0.00543511 0.00123395 0.000231693 0.00149528 0 -0.000533937 0 0.00137881 -0.000533937 -0.00126061 0.00137881 -0.0012959 0.00137881 -0.0012959 0.000375075 0.00245945 0 0.00137881 0 0.000375075 -0.00126061 0.00269247 -0.0012959 -0.00241644 0.00269247 -7.76231e-05 -0.00241644 0.00305673 -0.00241644 0.00305673 -0.00321883 -0.00126706 -0.0012959 -0.00241644 0.00245945 -0.00321883 0.00245945 -0.00321883 0.00216524 0.00125429 -0.00321883 -0.00126706 0.00125429 -0.00360691 0.00125429 -0.00360691 0.00349887 -0.000740474 0.00216524 0.00125429 -0.00180467 0.00349887 0 0.000375075 0 -0.00129854 0.000375075 0.00245945 -0.00129854 0.00216524 -0.00129854 0.00216524 -0.000745349 -0.00180467 0 -0.00129854 0 -0.000745349 -7.76231e-05 -0.00256557 0.00305673 0.00183798 -0.00256557 0.000324803 0.00183798 -0.000463543 0.00183798 -0.000463543 0.00246411 0.00105363 0.00305673 0.00183798 -0.00126706 0.00246411 0.000324803 9.24132e-05 -0.000463543 -0.00187243 9.24132e-05 0.000438508 -0.00187243 -0.000473083 -0.00187243 -0.000473083 0.00352312 -0.00039791 -0.000463543 -0.00187243 0.00105363 0.00352312 0.00105363 0.00352312 1.00844e-05 0.00295908 0.00352312 -0.00039791 0.00295908 0.00368208 0.00295908 0.00368208 -0.00332216 -0.000312317 1.00844e-05 0.00295908 0.00271361 -0.00332216 -0.00126706 0.00246411 -0.00360691 -0.000538823 0.00246411 0.00105363 -0.000538823 1.00844e-05 -0.000538823 1.00844e-05 -0.00127315 0.00271361 -0.00360691 -0.000538823 -0.000740474 -0.00127315 -0.000740474 -0.00127315 0.00168597 -0.000646402 -0.00127315 0.00271361 -0.000646402 0.00308914 -0.000646402 0.00308914 0.00136022 -0.00293841 0.00168597 -0.000646402 -0.000716345 0.00136022 0.00271361 -0.00332216 0.00308914 0.00141629 -0.00332216 -0.000312317 0.00141629 -0.00447979 0.00141629 -0.00447979 0.00411529 0.00282406 0.00308914 0.00141629 -0.00293841 0.00411529 -0.00293841 0.00411529 -0.00292776 -0.00369075 0.00411529 0.00282406 -0.00369075 0.00543511 -0.00369075 0.00543511 -0.00498347 0.000231693 -0.00292776 -0.00369075 0.000760633 -0.00498347 -0.000716345 0.00136022 -0.00395395 0.00109793 0.00136022 -0.00293841 0.00109793 -0.00292776 0.00109793 -0.00292776 -0.00211297 0.000760633 -0.00395395 0.00109793 -0.000501981 -0.00211297 0 -0.000745349 0 0.000900644 -0.000745349 -0.00180467 0.000900644 -0.00122486 0.000900644 -0.00122486 0.000469424 0.00307191 0 0.000900644 0 0.000469424 -0.00180467 0.00349887 -0.00122486 -0.000699065 0.00349887 -0.000740474 -0.000699065 0.00168597 -0.000699065 0.00168597 -0.0038349 -0.000716345 -0.00122486 -0.000699065 0.00307191 -0.0038349 0.00307191 -0.0038349 0.00241406 0.00176836 -0.0038349 -0.000716345 0.00176836 -0.00395395 0.00176836 -0.00395395 0.00587248 -0.000501981 0.00241406 0.00176836 -0.00263996 0.00587248 0 0.000469424 0 -0.00181794 0.000469424 0.00307191 -0.00181794 0.00241406 -0.00181794 0.00241406 -0.0015551 -0.00263996 0 -0.00181794 0 -0.0015551 0 0 -0.0015551 0.001188 0 0 0.001188 0.00215085 0.001188 0.00215085 -0.00440301 -0.00296556 -0.0015551 0.001188 -0.00263996 -0.00440301 0 0 0.00215085 0.00157308 0 0 0.00157308 0.00166592 0.00157308 0.00166592 -0.00234953 -0.00104055 0.00215085 0.00157308 -0.00296556 -0.00234953 -0.00296556 -0.00234953 -0.00284296 -0.0020622 -0.00234953 -0.00104055 -0.0020622 -0.00365688 -0.0020622 -0.00365688 0.00231886 0.0029225 -0.00284296 -0.0020622 0.0039329 0.00231886 -0.00263996 -0.00440301 0.00587248 0.000960291 -0.00440301 -0.00296556 0.000960291 -0.00284296 0.000960291 -0.00284296 0.00467218 0.0039329 0.00587248 0.000960291 -0.000501981 0.00467218 0 0 0.00166592 0.00131075 0 0 0.00131075 -8.2074e-05 0.00131075 -8.2074e-05 0.00182189 0.00246937 0.00166592 0.00131075 -0.00104055 0.00182189 0 0 -8.2074e-05 -0.000674666 0 0 -0.000674666 -5.61016e-05 -0.000674666 -5.61016e-05 0.000158698 -0.0013674 -8.2074e-05 -0.000674666 0.00246937 0.000158698 0.00246937 0.000158698 -0.00204589 0.00211356 0.000158698 -0.0013674 0.00211356 0.00183902 0.00211356 0.00183902 -0.00259442 0.000827432 -0.00204589 0.00211356 -0.00329033 -0.00259442 -0.00104055 0.00182189 -0.00365688 -0.00544761 0.00182189 0.00246937 -0.00544761 -0.00204589 -0.00544761 -0.00204589 0.00057071 -0.00329033 -0.00365688 -0.00544761 0.0029225 0.00057071 0.0029225 0.00057071 0.00346019 0.00583474 0.00057071 -0.00329033 0.00583474 0.00381862 0.00583474 0.00381862 0.000913179 0.00358687 0.00346019 0.00583474 0.00355941 0.000913179 -0.00329033 -0.00259442 0.00381862 -0.00162818 -0.00259442 0.000827432 -0.00162818 -0.00333953 -0.00162818 -0.00333953 0.00485334 0.00129233 0.00381862 -0.00162818 0.00358687 0.00485334 0.00358687 0.00485334 -0.00348248 -0.00235797 0.00485334 0.00129233 -0.00235797 0.00195086 -0.00235797 0.00195086 -0.00691106 -0.00608858 -0.00348248 -0.00235797 0.00107577 -0.00691106 0.00355941 0.000913179 0.00553622 0.00240701 0.000913179 0.00358687 0.00240701 -0.00348248 0.00240701 -0.00348248 0.00680165 0.00107577 0.00553622 0.00240701 0.00236333 0.00680165 -0.000501981 0.00467218 -0.00211297 -0.000992127 0.00467218 0.0039329 -0.000992127 0.00269329 -0.000992127 0.00269329 0.000501342 0.00274148 -0.00211297 -0.000992127 0.000760633 0.000501342 0.0039329 0.00231886 0.00269329 0.00288052 0.00231886 0.0029225 0.00288052 0.00346019 0.00288052 0.00346019 0.00618234 0.00355941 0.00269329 0.00288052 0.00274148 0.00618234 0.00274148 0.00618234 -0.0016543 0.000819886 0.00618234 0.00355941 0.000819886 0.00553622 0.000819886 0.00553622 -0.00165515 0.00236333 -0.0016543 0.000819886 0.000540649 -0.00165515 0.000760633 0.000501342 -0.00498347 -0.00114697 0.000501342 0.00274148 -0.00114697 -0.0016543 -0.00114697 -0.0016543 0.000205589 0.000540649 -0.00498347 -0.00114697 0.000231693 0.000205589 0 0 -5.61016e-05 0.000350851 0 0 0.000350851 8.7866e-05 0.000350851 8.7866e-05 -0.000646047 0.000336029 -5.61016e-05 0.000350851 -0.0013674 -0.000646047 0 0 8.7866e-05 -0.000171408 0 0 -0.000171408 -0.000122972 -0.000171408 -0.000122972 0.00033723 -2.50278e-05 8.7866e-05 -0.000171408 0.000336029 0.00033723 0.000336029 0.00033723 -0.000707525 8.02848e-05 0.00033723 -2.50278e-05 8.02848e-05 0.00039184 8.02848e-05 0.00039184 -0.000683047 -0.000343613 -0.000707525 8.02848e-05 0.000164252 -0.000683047 -0.0013674 -0.000646047 0.00183902 -0.000309838 -0.000646047 0.000336029 -0.000309838 -0.000707525 -0.000309838 -0.000707525 0.00166854 0.000164252 0.00183902 -0.000309838 0.000827432 0.00166854 0 0 -0.000122972 -5.95614e-06 0 0 -5.95614e-06 2.54294e-05 -5.95614e-06 2.54294e-05 -0.000125482 -4.77403e-05 -0.000122972 -5.95614e-06 -2.50278e-05 -0.000125482 0 0 2.54294e-05 5.8528e-06 0 0 5.8528e-06 0 5.8528e-06 0 9.98295e-06 0 2.54294e-05 5.8528e-06 -4.77403e-05 9.98295e-06 -4.77403e-05 9.98295e-06 -1.54167e-05 -2.95252e-05 9.98295e-06 0 -2.95252e-05 0 -2.95252e-05 0 1.0976e-05 0 -1.54167e-05 -2.95252e-05 0.000102197 1.0976e-05 -2.50278e-05 -0.000125482 0.00039184 0.000172874 -0.000125482 -4.77403e-05 0.000172874 -1.54167e-05 0.000172874 -1.54167e-05 5.7217e-05 0.000102197 0.00039184 0.000172874 -0.000343613 5.7217e-05 -0.000343613 5.7217e-05 -0.000246957 -0.000280445 5.7217e-05 0.000102197 -0.000280445 -6.16716e-05 -0.000280445 -6.16716e-05 0.000134707 -6.79365e-05 -0.000246957 -0.000280445 0.000532196 0.000134707 0.000102197 1.0976e-05 -6.16716e-05 3.15229e-05 1.0976e-05 0 3.15229e-05 0 3.15229e-05 0 -3.3567e-05 0 -6.16716e-05 3.15229e-05 -6.79365e-05 -3.3567e-05 -6.79365e-05 -3.3567e-05 9.30213e-05 -4.19305e-06 -3.3567e-05 0 -4.19305e-06 0 -4.19305e-06 0 2.51372e-05 0 9.30213e-05 -4.19305e-06 -4.10663e-05 2.51372e-05 0.000532196 0.000134707 -0.000215341 0.000120006 0.000134707 -6.79365e-05 0.000120006 9.30213e-05 0.000120006 9.30213e-05 -0.000215168 -4.10663e-05 -0.000215341 0.000120006 -2.80256e-05 -0.000215168 0.000827432 0.00166854 -0.00333953 -0.000889455 0.00166854 0.000164252 -0.000889455 0.000873899 -0.000889455 0.000873899 -0.00168022 -0.00112681 -0.00333953 -0.000889455 0.00129233 -0.00168022 0.000164252 -0.000683047 0.000873899 0.000467068 -0.000683047 -0.000343613 0.000467068 -0.000246957 0.000467068 -0.000246957 0.000304127 0.000532196 0.000873899 0.000467068 -0.00112681 0.000304127 -0.00112681 0.000304127 0.000316628 -0.000608501 0.000304127 0.000532196 -0.000608501 -0.000215341 -0.000608501 -0.000215341 0.00119951 -2.80256e-05 0.000316628 -0.000608501 0.00226389 0.00119951 0.00129233 -0.00168022 0.00195086 0.00241842 -0.00168022 -0.00112681 0.00241842 0.000316628 0.00241842 0.000316628 -0.000304375 0.00226389 0.00195086 0.00241842 -0.00608858 -0.000304375 -0.00608858 -0.000304375 -0.00215223 -0.00521881 -0.000304375 0.00226389 -0.00521881 -0.00160665 -0.00521881 -0.00160665 0.0022124 -0.00229189 -0.00215223 -0.00521881 0.0101611 0.0022124 0.00226389 0.00119951 -0.00160665 0.00130025 0.00119951 -2.80256e-05 0.00130025 0.00123654 0.00130025 0.00123654 -0.00131077 0.00038023 -0.00160665 0.00130025 -0.00229189 -0.00131077 -0.00229189 -0.00131077 0.0040069 -0.000123419 -0.00131077 0.00038023 -0.000123419 -0.000690278 -0.000123419 -0.000690278 0.00313785 0.000667822 0.0040069 -0.000123419 0.00340682 0.00313785 0.0101611 0.0022124 0.00156079 0.00803572 0.0022124 -0.00229189 0.00803572 0.0040069 0.00803572 0.0040069 -0.00536901 0.00340682 0.00156079 0.00803572 -0.0183174 -0.00536901 -2.80256e-05 -0.000215168 0.00123654 0.000323658 -0.000215168 -4.10663e-05 0.000323658 -5.88431e-05 0.000323658 -5.88431e-05 0.000581691 0.000185372 0.00123654 0.000323658 0.00038023 0.000581691 -4.10663e-05 2.51372e-05 -5.88431e-05 -4.08254e-05 2.51372e-05 0 -4.08254e-05 0 -4.08254e-05 0 -2.83655e-05 0 -5.88431e-05 -4.08254e-05 0.000185372 -2.83655e-05 0.000185372 -2.83655e-05 0.000160554 4.66239e-05 -2.83655e-05 0 4.66239e-05 0 4.66239e-05 0 3.35015e-05 0 0.000160554 4.66239e-05 -7.67321e-05 3.35015e-05 0.00038023 0.000581691 -0.000690278 -5.20161e-05 0.000581691 0.000185372 -5.20161e-05 0.000160554 -5.20161e-05 0.000160554 -0.000189934 -7.67321e-05 -0.000690278 -5.20161e-05 0.000667822 -0.000189934 0.000667822 -0.000189934 0.00157397 0.000470467 -0.000189934 -7.67321e-05 0.000470467 -7.15152e-05 0.000470467 -7.15152e-05 0.000597343 0.000235468 0.00157397 0.000470467 -0.00103798 0.000597343 -7.67321e-05 3.35015e-05 -7.15152e-05 -4.03557e-05 3.35015e-05 0 -4.03557e-05 0 -4.03557e-05 0 -4.37e-05 0 -7.15152e-05 -4.03557e-05 0.000235468 -4.37e-05 0.000235468 -4.37e-05 0.000337513 0.00010971 -4.37e-05 0 0.00010971 0 0.00010971 0 0.000252912 0 0.000337513 0.00010971 -0.000477264 0.000252912 -0.00103798 0.000597343 -0.00459812 -0.000940709 0.000597343 0.000235468 -0.000940709 0.000337513 -0.000940709 0.000337513 -0.00324919 -0.000477264 -0.00459812 -0.000940709 -0.00181775 -0.00324919 -0.0183174 -0.00536901 0.00884307 -0.0123428 -0.00536901 0.00340682 -0.0123428 -0.00708752 -0.0123428 -0.00708752 0.0311658 -0.00427862 0.00884307 -0.0123428 0.114295 0.0311658 0.00340682 0.00313785 -0.00708752 0.000284734 0.00313785 0.000667822 0.000284734 0.00157397 0.000284734 0.00157397 -0.00613529 -0.00103798 -0.00708752 0.000284734 -0.00427862 -0.00613529 -0.00427862 -0.00613529 0.0374736 -0.00105114 -0.00613529 -0.00103798 -0.00105114 -0.00459812 -0.00105114 -0.00459812 0.0282649 -0.00181775 0.0374736 -0.00105114 0.118516 0.0282649 0.114295 0.0311658 0.263882 0.133889 0.0311658 -0.00427862 0.133889 0.0374736 0.133889 0.0374736 0.264139 0.118516 0.263882 0.133889 0.407247 0.264139 0.000231693 0.000205589 0.00149528 1.49723e-05 0.000205589 0.000540649 1.49723e-05 0.00509994 1.49723e-05 0.00509994 -0.0072472 -0.00823734 0.00149528 1