<?xml version="1.0" encoding="UTF-8"?>
<VTKFile type="UnstructuredGrid" version="0.1" byte_order="LittleEndian" compressor="vtkZLibDataCompressor">
    <UnstructuredGrid>
        <Piece NumberOfPoints="4096" NumberOfCells="1024">
            <Points>
                <DataArray type="Float64" Name="Array" NumberOfComponents="3" format="ascii" RangeMin="0" RangeMax="1">0 0 0 0.03125 0 0 0 0.03125 0 0.03125 0.03125 0 0.03125 0 0 0.0625 0 0 0.03125 0.03125 0 0.0625 0.03125 0 0.03125 0.03125 0 0.0625 0.03125 0 0.03125 0.0625 0 0.0625 0.0625 0 0 0.03125 0 0.03125 0.03125 0 0 0.0625 0 0.03125 0.0625 0 0.0625 0 0 0.09375 0 0 0.0625 0.03125 0 0.09375 0.03125 0 0.09375 0 0 0.125 0 0 0.09375 0.03125 0 0.125 0.03125 0 0.09375 0.03125 0 0.125 0.03125 0 0.09375 0.0625 0 0.125 0.0625 0 0.0625 0.03125 0 0.09375 0.03125 0 0.0625 0.0625 0 0.09375 0.0625 0 0.0625 0.0625 0 0.09375 0.0625 0 0.0625 0.09375 0 0.09375 0.09375 0 0.09375 0.0625 0 0.125 0.0625 0 0.09375 0.09375 0 0.125 0.09375 0 0.09375 0.09375 0 0.125 0.09375 0 0.09375 0.125 0 0.125 0.125 0 0.0625 0.09375 0 0.09375 0.09375 0 0.0625 0.125 0 0.09375 0.125 0 0 0.0625 0 0.03125 0.0625 0 0 0.09375 0 0.03125 0.09375 0 0.03125 0.0625 0 0.0625 0.0625 0 0.03125 0.09375 0 0.0625 0.09375 0 0.03125 0.09375 0 0.0625 0.09375 0 0.03125 0.125 0 0.0625 0.125 0 0 0.09375 0 0.03125 0.09375 0 0 0.125 0 0.03125 0.125 0 0.125 0 0 0.15625 0 0 0.125 0.03125 0 0.15625 0.03125 0 0.15625 0 0 0.1875 0 0 0.15625 0.03125 0 0.1875 0.03125 0 0.15625 0.03125 0 0.1875 0.03125 0 0.15625 0.0625 0 0.1875 0.0625 0 0.125 0.03125 0 0.15625 0.03125 0 0.125 0.0625 0 0.15625 0.0625 0 0.1875 0 0 0.21875 0 0 0.1875 0.03125 0 0.21875 0.03125 0 0.21875 0 0 0.25 0 0 0.21875 0.03125 0 0.25 0.03125 0 0.21875 0.03125 0 0.25 0.03125 0 0.21875 0.0625 0 0.25 0.0625 0 0.1875 0.03125 0 0.21875 0.03125 0 0.1875 0.0625 0 0.21875 0.0625 0 0.1875 0.0625 0 0.21875 0.0625 0 0.1875 0.09375 0 0.21875 0.09375 0 0.21875 0.0625 0 0.25 0.0625 0 0.21875 0.09375 0 0.25 0.09375 0 0.21875 0.09375 0 0.25 0.09375 0 0.21875 0.125 0 0.25 0.125 0 0.1875 0.09375 0 0.21875 0.09375 0 0.1875 0.125 0 0.21875 0.125 0 0.125 0.0625 0 0.15625 0.0625 0 0.125 0.09375 0 0.15625 0.09375 0 0.15625 0.0625 0 0.1875 0.0625 0 0.15625 0.09375 0 0.1875 0.09375 0 0.15625 0.09375 0 0.1875 0.09375 0 0.15625 0.125 0 0.1875 0.125 0 0.125 0.09375 0 0.15625 0.09375 0 0.125 0.125 0 0.15625 0.125 0 0.125 0.125 0 0.15625 0.125 0 0.125 0.15625 0 0.15625 0.15625 0 0.15625 0.125 0 0.1875 0.125 0 0.15625 0.15625 0 0.1875 0.15625 0 0.15625 0.15625 0 0.1875 0.15625 0 0.15625 0.1875 0 0.1875 0.1875 0 0.125 0.15625 0 0.15625 0.15625 0 0.125 0.1875 0 0.15625 0.1875 0 0.1875 0.125 0 0.21875 0.125 0 0.1875 0.15625 0 0.21875 0.15625 0 0.21875 0.125 0 0.25 0.125 0 0.21875 0.15625 0 0.25 0.15625 0 0.21875 0.15625 0 0.25 0.15625 0 0.21875 0.1875 0 0.25 0.1875 0 0.1875 0.15625 0 0.21875 0.15625 0 0.1875 0.1875 0 0.21875 0.1875 0 0.1875 0.1875 0 0.21875 0.1875 0 0.1875 0.21875 0 0.21875 0.21875 0 0.21875 0.1875 0 0.25 0.1875 0 0.21875 0.21875 0 0.25 0.21875 0 0.21875 0.21875 0 0.25 0.21875 0 0.21875 0.25 0 0.25 0.25 0 0.1875 0.21875 0 0.21875 0.21875 0 0.1875 0.25 0 0.21875 0.25 0 0.125 0.1875 0 0.15625 0.1875 0 0.125 0.21875 0 0.15625 0.21875 0 0.15625 0.1875 0 0.1875 0.1875 0 0.15625 0.21875 0 0.1875 0.21875 0 0.15625 0.21875 0 0.1875 0.21875 0 0.15625 0.25 0 0.1875 0.25 0 0.125 0.21875 0 0.15625 0.21875 0 0.125 0.25 0 0.15625 0.25 0 0 0.125 0 0.03125 0.125 0 0 0.15625 0 0.03125 0.15625 0 0.03125 0.125 0 0.0625 0.125 0 0.03125 0.15625 0 0.0625 0.15625 0 0.03125 0.15625 0 0.0625 0.15625 0 0.03125 0.1875 0 0.0625 0.1875 0 0 0.15625 0 0.03125 0.15625 0 0 0.1875 0 0.03125 0.1875 0 0.0625 0.125 0 0.09375 0.125 0 0.0625 0.15625 0 0.09375 0.15625 0 0.09375 0.125 0 0.125 0.125 0 0.09375 0.15625 0 0.125 0.15625 0 0.09375 0.15625 0 0.125 0.15625 0 0.09375 0.1875 0 0.125 0.1875 0 0.0625 0.15625 0 0.09375 0.15625 0 0.0625 0.1875 0 0.09375 0.1875 0 0.0625 0.1875 0 0.09375 0.1875 0 0.0625 0.21875 0 0.09375 0.21875 0 0.09375 0.1875 0 0.125 0.1875 0 0.09375 0.21875 0 0.125 0.21875 0 0.09375 0.21875 0 0.125 0.21875 0 0.09375 0.25 0 0.125 0.25 0 0.0625 0.21875 0 0.09375 0.21875 0 0.0625 0.25 0 0.09375 0.25 0 0 0.1875 0 0.03125 0.1875 0 0 0.21875 0 0.03125 0.21875 0 0.03125 0.1875 0 0.0625 0.1875 0 0.03125 0.21875 0 0.0625 0.21875 0 0.03125 0.21875 0 0.0625 0.21875 0 0.03125 0.25 0 0.0625 0.25 0 0 0.21875 0 0.03125 0.21875 0 0 0.25 0 0.03125 0.25 0 0.25 0 0 0.28125 0 0 0.25 0.03125 0 0.28125 0.03125 0 0.28125 0 0 0.3125 0 0 0.28125 0.03125 0 0.3125 0.03125 0 0.28125 0.03125 0 0.3125 0.03125 0 0.28125 0.0625 0 0.3125 0.0625 0 0.25 0.03125 0 0.28125 0.03125 0 0.25 0.0625 0 0.28125 0.0625 0 0.3125 0 0 0.34375 0 0 0.3125 0.03125 0 0.34375 0.03125 0 0.34375 0 0 0.375 0 0 0.34375 0.03125 0 0.375 0.03125 0 0.34375 0.03125 0 0.375 0.03125 0 0.34375 0.0625 0 0.375 0.0625 0 0.3125 0.03125 0 0.34375 0.03125 0 0.3125 0.0625 0 0.34375 0.0625 0 0.3125 0.0625 0 0.34375 0.0625 0 0.3125 0.09375 0 0.34375 0.09375 0 0.34375 0.0625 0 0.375 0.0625 0 0.34375 0.09375 0 0.375 0.09375 0 0.34375 0.09375 0 0.375 0.09375 0 0.34375 0.125 0 0.375 0.125 0 0.3125 0.09375 0 0.34375 0.09375 0 0.3125 0.125 0 0.34375 0.125 0 0.25 0.0625 0 0.28125 0.0625 0 0.25 0.09375 0 0.28125 0.09375 0 0.28125 0.0625 0 0.3125 0.0625 0 0.28125 0.09375 0 0.3125 0.09375 0 0.28125 0.09375 0 0.3125 0.09375 0 0.28125 0.125 0 0.3125 0.125 0 0.25 0.09375 0 0.28125 0.09375 0 0.25 0.125 0 0.28125 0.125 0 0.375 0 0 0.40625 0 0 0.375 0.03125 0 0.40625 0.03125 0 0.40625 0 0 0.4375 0 0 0.40625 0.03125 0 0.4375 0.03125 0 0.40625 0.03125 0 0.4375 0.03125 0 0.40625 0.0625 0 0.4375 0.0625 0 0.375 0.03125 0 0.40625 0.03125 0 0.375 0.0625 0 0.40625 0.0625 0 0.4375 0 0 0.46875 0 0 0.4375 0.03125 0 0.46875 0.03125 0 0.46875 0 0 0.5 0 0 0.46875 0.03125 0 0.5 0.03125 0 0.46875 0.03125 0 0.5 0.03125 0 0.46875 0.0625 0 0.5 0.0625 0 0.4375 0.03125 0 0.46875 0.03125 0 0.4375 0.0625 0 0.46875 0.0625 0 0.4375 0.0625 0 0.46875 0.0625 0 0.4375 0.09375 0 0.46875 0.09375 0 0.46875 0.0625 0 0.5 0.0625 0 0.46875 0.09375 0 0.5 0.09375 0 0.46875 0.09375 0 0.5 0.09375 0 0.46875 0.125 0 0.5 0.125 0 0.4375 0.09375 0 0.46875 0.09375 0 0.4375 0.125 0 0.46875 0.125 0 0.375 0.0625 0 0.40625 0.0625 0 0.375 0.09375 0 0.40625 0.09375 0 0.40625 0.0625 0 0.4375 0.0625 0 0.40625 0.09375 0 0.4375 0.09375 0 0.40625 0.09375 0 0.4375 0.09375 0 0.40625 0.125 0 0.4375 0.125 0 0.375 0.09375 0 0.40625 0.09375 0 0.375 0.125 0 0.40625 0.125 0 0.375 0.125 0 0.40625 0.125 0 0.375 0.15625 0 0.40625 0.15625 0 0.40625 0.125 0 0.4375 0.125 0 0.40625 0.15625 0 0.4375 0.15625 0 0.40625 0.15625 0 0.4375 0.15625 0 0.40625 0.1875 0 0.4375 0.1875 0 0.375 0.15625 0 0.40625 0.15625 0 0.375 0.1875 0 0.40625 0.1875 0 0.4375 0.125 0 0.46875 0.125 0 0.4375 0.15625 0 0.46875 0.15625 0 0.46875 0.125 0 0.5 0.125 0 0.46875 0.15625 0 0.5 0.15625 0 0.46875 0.15625 0 0.5 0.15625 0 0.46875 0.1875 0 0.5 0.1875 0 0.4375 0.15625 0 0.46875 0.15625 0 0.4375 0.1875 0 0.46875 0.1875 0 0.4375 0.1875 0 0.46875 0.1875 0 0.4375 0.21875 0 0.46875 0.21875 0 0.46875 0.1875 0 0.5 0.1875 0 0.46875 0.21875 0 0.5 0.21875 0 0.46875 0.21875 0 0.5 0.21875 0 0.46875 0.25 0 0.5 0.25 0 0.4375 0.21875 0 0.46875 0.21875 0 0.4375 0.25 0 0.46875 0.25 0 0.375 0.1875 0 0.40625 0.1875 0 0.375 0.21875 0 0.40625 0.21875 0 0.40625 0.1875 0 0.4375 0.1875 0 0.40625 0.21875 0 0.4375 0.21875 0 0.40625 0.21875 0 0.4375 0.21875 0 0.40625 0.25 0 0.4375 0.25 0 0.375 0.21875 0 0.40625 0.21875 0 0.375 0.25 0 0.40625 0.25 0 0.25 0.125 0 0.28125 0.125 0 0.25 0.15625 0 0.28125 0.15625 0 0.28125 0.125 0 0.3125 0.125 0 0.28125 0.15625 0 0.3125 0.15625 0 0.28125 0.15625 0 0.3125 0.15625 0 0.28125 0.1875 0 0.3125 0.1875 0 0.25 0.15625 0 0.28125 0.15625 0 0.25 0.1875 0 0.28125 0.1875 0 0.3125 0.125 0 0.34375 0.125 0 0.3125 0.15625 0 0.34375 0.15625 0 0.34375 0.125 0 0.375 0.125 0 0.34375 0.15625 0 0.375 0.15625 0 0.34375 0.15625 0 0.375 0.15625 0 0.34375 0.1875 0 0.375 0.1875 0 0.3125 0.15625 0 0.34375 0.15625 0 0.3125 0.1875 0 0.34375 0.1875 0 0.3125 0.1875 0 0.34375 0.1875 0 0.3125 0.21875 0 0.34375 0.21875 0 0.34375 0.1875 0 0.375 0.1875 0 0.34375 0.21875 0 0.375 0.21875 0 0.34375 0.21875 0 0.375 0.21875 0 0.34375 0.25 0 0.375 0.25 0 0.3125 0.21875 0 0.34375 0.21875 0 0.3125 0.25 0 0.34375 0.25 0 0.25 0.1875 0 0.28125 0.1875 0 0.25 0.21875 0 0.28125 0.21875 0 0.28125 0.1875 0 0.3125 0.1875 0 0.28125 0.21875 0 0.3125 0.21875 0 0.28125 0.21875 0 0.3125 0.21875 0 0.28125 0.25 0 0.3125 0.25 0 0.25 0.21875 0 0.28125 0.21875 0 0.25 0.25 0 0.28125 0.25 0 0.25 0.25 0 0.28125 0.25 0 0.25 0.28125 0 0.28125 0.28125 0 0.28125 0.25 0 0.3125 0.25 0 0.28125 0.28125 0 0.3125 0.28125 0 0.28125 0.28125 0 0.3125 0.28125 0 0.28125 0.3125 0 0.3125 0.3125 0 0.25 0.28125 0 0.28125 0.28125 0 0.25 0.3125 0 0.28125 0.3125 0 0.3125 0.25 0 0.34375 0.25 0 0.3125 0.28125 0 0.34375 0.28125 0 0.34375 0.25 0 0.375 0.25 0 0.34375 0.28125 0 0.375 0.28125 0 0.34375 0.28125 0 0.375 0.28125 0 0.34375 0.3125 0 0.375 0.3125 0 0.3125 0.28125 0 0.34375 0.28125 0 0.3125 0.3125 0 0.34375 0.3125 0 0.3125 0.3125 0 0.34375 0.3125 0 0.3125 0.34375 0 0.34375 0.34375 0 0.34375 0.3125 0 0.375 0.3125 0 0.34375 0.34375 0 0.375 0.34375 0 0.34375 0.34375 0 0.375 0.34375 0 0.34375 0.375 0 0.375 0.375 0 0.3125 0.34375 0 0.34375 0.34375 0 0.3125 0.375 0 0.34375 0.375 0 0.25 0.3125 0 0.28125 0.3125 0 0.25 0.34375 0 0.28125 0.34375 0 0.28125 0.3125 0 0.3125 0.3125 0 0.28125 0.34375 0 0.3125 0.34375 0 0.28125 0.34375 0 0.3125 0.34375 0 0.28125 0.375 0 0.3125 0.375 0 0.25 0.34375 0 0.28125 0.34375 0 0.25 0.375 0 0.28125 0.375 0 0.375 0.25 0 0.40625 0.25 0 0.375 0.28125 0 0.40625 0.28125 0 0.40625 0.25 0 0.4375 0.25 0 0.40625 0.28125 0 0.4375 0.28125 0 0.40625 0.28125 0 0.4375 0.28125 0 0.40625 0.3125 0 0.4375 0.3125 0 0.375 0.28125 0 0.40625 0.28125 0 0.375 0.3125 0 0.40625 0.3125 0 0.4375 0.25 0 0.46875 0.25 0 0.4375 0.28125 0 0.46875 0.28125 0 0.46875 0.25 0 0.5 0.25 0 0.46875 0.28125 0 0.5 0.28125 0 0.46875 0.28125 0 0.5 0.28125 0 0.46875 0.3125 0
[...]
            <PointData>
                <DataArray Name="u" type="Float64" format="ascii">0 0 0 0.00101758 0 0 0.00101758 0.000435931 0.00101758 0.000435931 0.000435931 0.00349393 0 0.00101758 0 0.000435931 0 0 0.000435931 -0.00244728 0 0 -0.00244728 -0.0007251 -0.00244728 -0.0007251 0.00112653 -0.00131139 0.000435931 -0.00244728 0.00349393 0.00112653 0.00349393 0.00112653 0.00112653 0.00290688 0.00112653 -0.00131139 0.00290688 0.001596 0.00290688 0.001596 0.001596 -0.0017974 0.00112653 0.00290688 -0.00131139 0.001596 0 0.000435931 0 -0.00244728 0.000435931 0.00349393 -0.00244728 0.00112653 -0.00244728 0.00112653 -0.0007251 -0.00131139 0 -0.00244728 0 -0.0007251 0 0 -0.0007251 0.00208248 0 0 0.00208248 0.000689856 0.00208248 0.000689856 -0.00057735 0.00498956 -0.0007251 0.00208248 -0.00131139 -0.00057735 0 0 0.000689856 -0.00344464 0 0 -0.00344464 -0.000754414 -0.00344464 -0.000754414 0.00317872 -0.00340567 0.000689856 -0.00344464 0.00498956 0.00317872 0.00498956 0.00317872 -0.00366425 0.00471954 0.00317872 -0.00340567 0.00471954 0.0043426 0.00471954 0.0043426 -0.00237135 -0.000187303 -0.00366425 0.00471954 0.00261582 -0.00237135 -0.00131139 -0.00057735 0.001596 -0.000414973 -0.00057735 0.00498956 -0.000414973 -0.00366425 -0.000414973 -0.00366425 0.00107235 0.00261582 0.001596 -0.000414973 -0.0017974 0.00107235 -0.0017974 0.00107235 0.00107235 -0.00222794 0.00107235 0.00261582 -0.00222794 0.00332128 -0.00222794 0.00332128 0.00332128 -0.00397482 0.00107235 -0.00222794 0.00261582 0.00332128 0.00261582 -0.00237135 0.00332128 0.00201742 -0.00237135 -0.000187303 0.00201742 -0.00159313 0.00201742 -0.00159313 0.00158008 0.00307326 0.00332128 0.00201742 -0.00397482 0.00158008 -0.00397482 0.00158008 0.00158008 0.00375347 0.00158008 0.00307326 0.00375347 0.00159592 0.00375347 0.00159592 0.00159592 0.0014441 0.00158008 0.00375347 0.00307326 0.00159592 0.00261582 0.00332128 -0.00237135 0.00201742 0.00332128 -0.00397482 0.00201742 0.00158008 0.00201742 0.00158008 -0.00159313 0.00307326 -0.00237135 0.00201742 -0.000187303 -0.00159313 0 -0.0007251 0 0.00208248 -0.0007251 -0.00131139 0.00208248 -0.00057735 0.00208248 -0.00057735 0.000689856 0.00498956 0 0.00208248 0 0.000689856 -0.00131139 0.001596 -0.00057735 -0.000414973 0.001596 -0.0017974 -0.000414973 0.00107235 -0.000414973 0.00107235 -0.00366425 0.00261582 -0.00057735 -0.000414973 0.00498956 -0.00366425 0.00498956 -0.00366425 0.00317872 0.00471954 -0.00366425 0.00261582 0.00471954 -0.00237135 0.00471954 -0.00237135 0.0043426 -0.000187303 0.00317872 0.00471954 -0.00340567 0.0043426 0 0.000689856 0 -0.00344464 0.000689856 0.00498956 -0.00344464 0.00317872 -0.00344464 0.00317872 -0.000754414 -0.00340567 0 -0.00344464 0 -0.000754414 0 0 -0.000754414 0.00256099 0 0 0.00256099 -0.0021659 0.00256099 -0.0021659 0.00109794 0.003932 -0.000754414 0.00256099 -0.00340567 0.00109794 0 0 -0.0021659 -0.00370686 0 0 -0.00370686 0.00143827 -0.00370686 0.00143827 -0.00215022 -0.00576348 -0.0021659 -0.00370686 0.003932 -0.00215022 0.003932 -0.00215022 0.000725251 0.000691936 -0.00215022 -0.00576348 0.000691936 -0.000141562 0.000691936 -0.000141562 0.00109829 -0.00308657 0.000725251 0.000691936 0.000446024 0.00109829 -0.00340567 0.00109794 0.0043426 -0.00248096 0.00109794 0.003932 -0.00248096 0.000725251 -0.00248096 0.000725251 0.000200485 0.000446024 0.0043426 -0.00248096 -0.000187303 0.000200485 0 0 0.00143827 0.00494817 0 0 0.00494817 0.00526269 0.00494817 0.00526269 -0.00329337 0.00266697 0.00143827 0.00494817 -0.00576348 -0.00329337 0 0 0.00526269 0.00478965 0 0 0.00478965 0.00414359 0.00478965 0.00414359 0.00642874 0.0060801 0.00526269 0.00478965 0.00266697 0.00642874 0.00266697 0.00642874 -0.00310307 -0.00180876 0.00642874 0.0060801 -0.00180876 0.00205114 -0.00180876 0.00205114 0.0025938 0.00402749 -0.00310307 -0.00180876 0.00604781 0.0025938 -0.00576348 -0.00329337 -0.000141562 0.000572364 -0.00329337 0.00266697 0.000572364 -0.00310307 0.000572364 -0.00310307 0.000737594 0.00604781 -0.000141562 0.000572364 -0.00308657 0.000737594 -0.00308657 0.000737594 0.00231574 -0.00629977 0.000737594 0.00604781 -0.00629977 -0.00277546 -0.00629977 -0.00277546 0.00342744 -0.00484969 0.00231574 -0.00629977 0.00117387 0.00342744 0.00604781 0.0025938 -0.00277546 0.00114415 0.0025938 0.00402749 0.00114415 -0.002333 0.00114415 -0.002333 0.000590354 -0.000244876 -0.00277546 0.00114415 -0.00484969 0.000590354 -0.00484969 0.000590354 0.00833301 0.00563 0.000590354 -0.000244876 0.00563 0.0114705 0.00563 0.0114705 0.0632242 0.0629494 0.00833301 0.00563 0.0608258 0.0632242 0.00117387 0.00342744 -0.00890434 0.00511964 0.00342744 -0.00484969 0.00511964 0.00833301 0.00511964 0.00833301 0.0396853 0.0608258 -0.00890434 0.00511964 0.0238676 0.0396853 -0.000187303 0.000200485 -0.00159313 0.00105953 0.000200485 0.000446024 0.00105953 0.000849402 0.00105953 0.000849402 0.00467925 -0.0015222 -0.00159313 0.00105953 0.00307326 0.00467925 0.000446024 0.00109829 0.000849402 0.00437327 0.00109829 -0.00308657 0.00437327 0.00231574 0.00437327 0.00231574 -0.00967749 0.00117387 0.000849402 0.00437327 -0.0015222 -0.00967749 -0.0015222 -0.00967749 0.0015003 -0.00425705 -0.00967749 0.00117387 -0.00425705 -0.00890434 -0.00425705 -0.00890434 0.0154542 0.0238676 0.0015003 -0.00425705 -0.00309932 0.0154542 0.00307326 0.00467925 0.00159592 -0.00415037 0.00467925 -0.0015222 -0.00415037 0.0015003 -0.00415037 0.0015003 -0.00665496 -0.00309932 0.00159592 -0.00415037 0.0014441 -0.00665496 0.0014441 -0.00665496 -0.00665496 0.00749965 -0.00665496 -0.00309932 0.00749965 0.0167808 0.00749965 0.0167808 0.0167808 0.0611363 -0.00665496 0.00749965 -0.00309932 0.0167808 -0.00309932 0.0154542 0.0167808 0.0423169 0.0154542 0.0238676 0.0423169 0.0832545 0.0423169 0.0832545 0.109259 0.175465 0.0167808 0.0423169 0.0611363 0.109259 0.0611363 0.109259 0.109259 0.194958 0.109259 0.175465 0.194958 0.290913 0.194958 0.290913 0.290913 0.396061 0.109259 0.194958 0.175465 0.290913 -0.00309932 0.0167808 0.0154542 0.0423169 0.0167808 0.0611363 0.0423169 0.109259 0.0423169 0.109259 0.0832545 0.175465 0.0154542 0.0423169 0.0238676 0.0832545 0.0238676 0.0396853 0.0832545 0.120726 0.0396853 0.0608258 0.120726 0.163295 0.120726 0.163295 0.239035 0.289643 0.0832545 0.120726 0.175465 0.239035 0.0608258 0.0632242 0.163295 0.189191 0.0632242 0.0629494 0.189191 0.18403 0.189191 0.18403 0.334377 0.344244 0.163295 0.189191 0.289643 0.334377 0.289643 0.334377 0.442879 0.484677 0.334377 0.344244 0.484677 0.507912 0.484677 0.507912 0.624557 0.647997 0.442879 0.484677 0.587546 0.624557 0.175465 0.239035 0.290913 0.384843 0.239035 0.289643 0.384843 0.442879 0.384843 0.442879 0.505105 0.587546 0.290913 0.384843 0.396061 0.505105 0.396061 0.505105 0.505105 0.606602 0.505105 0.587546 0.606602 0.696055 0.606602 0.696055 0.696055 0.783356 0.505105 0.606602 0.587546 0.696055 0.587546 0.624557 0.696055 0.739902 0.624557 0.647997 0.739902 0.757685 0.739902 0.757685 0.8338 0.845846 0.696055 0.739902 0.783356 0.8338 0.783356 0.8338 0.8338 0.888201 0.8338 0.845846 0.888201 0.902457 0.888201 0.902457 0.902457 0.921095 0.8338 0.888201 0.845846 0.902457 0.587546 0.696055 0.624557 0.739902 0.696055 0.783356 0.739902 0.8338 0.739902 0.8338 0.757685 0.845846 0.624557 0.739902 0.647997 0.757685 0.0238676 0.0832545 0.0396853 0.120726 0.0832545 0.175465 0.120726 0.239035 0.120726 0.239035 0.163295 0.289643 0.0396853 0.120726 0.0608258 0.163295 0.175465 0.290913 0.239035 0.384843 0.290913 0.396061 0.384843 0.505105 0.384843 0.505105 0.442879 0.587546 0.239035 0.384843 0.289643 0.442879 0.289643 0.442879 0.334377 0.484677 0.442879 0.587546 0.484677 0.624557 0.484677 0.624557 0.507912 0.647997 0.334377 0.484677 0.344244 0.507912 0.0608258 0.163295 0.0632242 0.189191 0.163295 0.289643 0.189191 0.334377 0.189191 0.334377 0.18403 0.344244 0.0632242 0.189191 0.0629494 0.18403 0 -0.000754414 0 0.00256099 -0.000754414 -0.00340567 0.00256099 0.00109794 0.00256099 0.00109794 -0.0021659 0.003932 0 0.00256099 0 -0.0021659 -0.00340567 0.0043426 0.00109794 -0.00248096 0.0043426 -0.000187303 -0.00248096 0.000200485 -0.00248096 0.000200485 0.000725251 0.000446024 0.00109794 -0.00248096 0.003932 0.000725251 0.003932 0.000725251 -0.00215022 0.000691936 0.000725251 0.000446024 0.000691936 0.00109829 0.000691936 0.00109829 -0.000141562 -0.00308657 -0.00215022 0.000691936 -0.00576348 -0.000141562 0 -0.0021659 0 -0.00370686 -0.0021659 0.003932 -0.00370686 -0.00215022 -0.00370686 -0.00215022 0.00143827 -0.00576348 0 -0.00370686 0 0.00143827 -0.000187303 -0.00159313 0.000200485 0.00105953 -0.00159313 0.00307326 0.00105953 0.00467925 0.00105953 0.00467925 0.000849402 -0.0015222 0.000200485 0.00105953 0.000446024 0.000849402 0.00307326 0.00159592 0.00467925 -0.00415037 0.00159592 0.0014441 -0.00415037 -0.00665496 -0.00415037 -0.00665496 0.0015003 -0.00309932 0.00467925 -0.00415037 -0.0015222 0.0015003 -0.0015222 0.0015003 -0.00967749 -0.00425705 0.0015003 -0.00309932 -0.00425705 0.0154542 -0.00425705 0.0154542 -0.00890434 0.0238676 -0.00967749 -0.00425705 0.00117387 -0.00890434 0.000446024 0.000849402 0.00109829 0.00437327 0.000849402 -0.0015222 0.00437327 -0.00967749 0.00437327 -0.00967749 0.00231574 0.00117387 0.00109829 0.00437327 -0.00308657 0.00231574 -0.00308657 0.00231574 0.000737594 -0.00629977 0.00231574 0.00117387 -0.00629977 0.00342744 -0.00629977 0.00342744 -0.00277546 -0.00484969 0.000737594 -0.00629977 0.00604781 -0.00277546 0.00117387 -0.00890434 0.00342744 0.00511964 -0.00890434 0.0238676 0.00511964 0.0396853 0.00511964 0.0396853 0.00833301 0.0608258 0.00342744 0.00511964 -0.00484969 0.00833301 -0.00484969 0.00833301 0.000590354 0.00563 0.00833301 0.0608258 0.00563 0.0632242 0.00563 0.0632242 0.0114705 0.0629494 0.000590354 0.00563 -0.000244876 0.0114705 0.00604781 -0.00277546 0.0025938 0.00114415 -0.00277546 -0.00484969 0.00114415 0.000590354 0.00114415 0.000590354 -0.002333 -0.000244876 0.0025938 0.00114415 0.00402749 -0.002333 0 0.00143827 0 0.00494817 0.00143827 -0.00576348 0.00494817 -0.00329337 0.00494817 -0.00329337 0.00526269 0.00266697 0 0.00494817 0 0.00526269 -0.00576348 -0.000141562 -0.00329337 0.000572364 -0.000141562 -0.00308657 0.000572364 0.000737594 0.000572364 0.000737594 -0.00310307 0.00604781 -0.00329337 0.000572364 0.00266697 -0.00310307 0.00266697 -0.00310307 0.00642874 -0.00180876 -0.00310307 0.00604781 -0.00180876 0.0025938 -0.00180876 0.0025938 0.00205114 0.00402749 0.00642874 -0.00180876 0.0060801 0.00205114 0 0.00526269 0 0.00478965 0.00526269 0.00266697 0.00478965 0.00642874 0.00478965 0.00642874 0.00414359 0.0060801 0 0.00478965 0 0.00414359 0 0 0.00414359 0.00224798 0 0 0.00224798 -0.000680335 0.00224798 -0.000680335 0.00643449 0.00608079 0.00414359 0.00224798 0.0060801 0.00643449 0 0 -0.000680335 -0.00173137 0 0 -0.00173137 -0.000348147 -0.00173137 -0.000348147 0.00157599 -0.00222383 -0.000680335 -0.00173137 0.00608079 0.00157599 0.00608079 0.00157599 -0.00302954 0.000902592 0.00157599 -0.00222383 0.000902592 0.00248413 0.000902592 0.00248413 -0.00680984 -0.00331963 -0.00302954 0.000902592 0.000133591 -0.00680984 0.0060801 0.00643449 0.00205114 -0.00111507 0.00643449 0.00608079 -0.00111507 -0.00302954 -0.00111507 -0.00302954 0.00743416 0.000133591 0.00205114 -0.00111507 0.00402749 0.00743416 0 0 -0.000348147 0.000639983 0 0 0.000639983 0.000186099 0.000639983 0.000186099 -0.001481 0.000407062 -0.000348147 0.000639983 -0.00222383 -0.001481 0 0 0.000186099 -0.000318831 0 0 -0.000318831 -0.000221985 -0.000318831 -0.000221985 0.000538912 -5.94997e-05 0.000186099 -0.000318831 0.000407062 0.000538912 0.000407062 0.000538912 -0.000622069 0.00021471 0.000538912 -5.94997e-05 0.00021471 0.000540953 0.00021471 0.000540953 -1.78802e-05 -0.000246142 -0.000622069 0.00021471 0.00159058 -1.78802e-05 -0.00222383 -0.001481 0.00248413 0.000279669 -0.001481 0.000407062 0.000279669 -0.000622069 0.000279669 -0.000622069 0.00168858 0.00159058 0.00248413 0.000279669 -0.00331963 0.00168858 -0.00331963 0.00168858 -0.00496668 -0.00427917 0.00168858 0.00159058 -0.00427917 0.000516388 -0.00427917 0.000516388 -0.000378374 -0.00307986 -0.00496668 -0.00427917 0.00965658 -0.000378374 0.00159058 -1.78802e-05 0.000516388 0.00172687 -1.78802e-05 -0.000246142 0.00172687 0.000573968 0.00172687 0.000573968 -0.000179009 0.00119995 0.000516388 0.00172687 -0.00307986 -0.000179009 -0.00307986 -0.000179009 0.00225874 -0.00123997 -0.000179009 0.00119995 -0.00123997 -0.000585179 -0.00123997 -0.000585179 0.00247873 -0.000105569 0.00225874 -0.00123997 0.0046351 0.00247873 0.00965658 -0.000378374 0.00299126 0.00809907 -0.000378374 -0.00307986 0.00809907 0.00225874 0.00809907 0.00225874 -0.00309797 0.0046351 0.00299126 0.00809907 -0.0182801 -0.00309797 0.00402749 0.00743416 -0.002333 0.00336215 0.00743416 0.000133591 0.00336215 0.0109976 0.00336215 0.0109976 -0.0113667 -0.00476887 -0.002333 0.00336215 -0.000244876 -0.0113667 0.000133591 -0.00680984 0.0109976 0.00448927 -0.00680984 -0.00331963 0.00448927 -0.00496668 0.00448927 -0.00496668 0.0106541 0.00965658 0.0109976 0.00448927 -0.00476887 0.0106541 -0.00476887 0.0106541 -0.0178537 -0.0145047 0.0106541 0.00965658 -0.0145047 0.00299126 -0.0145047 0.00299126 -0.0132406 -0.0182801 -0.0178537 -0.0145047 0.0244279 -0.0132406 -0.000244876 -0.0113667 0.0114705 0.00162746 -0.0113667 -0.00476887 0.00162746 -0.0178537 0.00162746 -0.0178537 0.0580843 0.0244279 0.0114705 0.00162746 0.0629494 0.0580843 0 0 -0.000221985 -7.39489e-06 0 0 -7.39489e-06 3.49317e-05 -7.39489e-06 3.49317e-05 -0.000194091 -5.26964e-05 -0.000221985 -7.39489e-06 -5.94997e-05 -0.000194091 0 0 3.49317e-05 7.06815e-06 0 0 7.06815e-06 -2.93974e-06 7.06815e-06 -2.93974e-06 1.32323e-05 6.59712e-06 3.49317e-05 7.06815e-06 -5.26964e-05 1.32323e-05 -5.26964e-05 1.32323e-05 -3.1865e-05 -2.97297e-05 1.32323e-05 6.59712e-06 -2.97297e-05 5.18025e-07 -2.97297e-05 5.18025e-07 7.73519e-06 -8.54346e-06 -3.1865e-05 -2.97297e-05 8.13093e-05 7.73519e-06 -5.94997e-05 -0.000194091 0.000540953 0.000195097 -0.000194091 -5.26964e-05 0.000195097 -3.1865e-05 0.000195097 -3.1865e-05 5.21432e-05 8.13093e-05 0.000540953 0.000195097 -0.000246142 5.21432e-05 0 0 -2.93974e-06 -7.57234e-07 0 0 -7.57234e-07 2.65951e-07 -7.57234e-07 2.65951e-07 -9.59395e-07 -5.4902e-07 -2.93974e-06 -7.57234e-07 6.59712e-06 -9.59395e-07 0 0 2.65951e-07 3.5053e-08 0 0 3.5053e-08 0 3.5053e-08 0 1.11062e-07 0 2.65951e-07 3.5053e-08 -5.4902e-07 1.11062e-07 -5.4902e-07 1.11062e-07 -8.98353e-08 -2.0021e-07 1.11062e-07 0 -2.0021e-07 0 -2.0021e-07 0 1.38547e-08 0 -8.98353e-08 -2.0021e-07 7.91864e-07 1.38547e-08 6.59712e-06 -9.59395e-07 5.18025e-07 2.80284e-06 -9.59395e-07 -5.4902e-07 2.80284e-06 -8.98353e-08 2.80284e-06 -8.98353e-08 -1.03416e-06 7.91864e-07 5.18025e-07 2.80284e-06 -8.54346e-06 -1.03416e-06 -8.54346e-06 -1.03416e-06 6.64117e-06 -9.81155e-07 -1.03416e-06 7.91864e-07 -9.81155e-07 -5.43798e-07 -9.81155e-07 -5.43798e-07 3.56954e-06 1.7576e-07 6.64117e-06 -9.81155e-07 -4.45346e-06 3.56954e-06 7.91864e-07 1.38547e-08 -5.43798e-07 1.30644e-07 1.38547e-08 0 1.30644e-07 0 1.30644e-07 0 -2.47726e-07 0 -5.43798e-07 1.30644e-07 1.7576e-07 -2.47726e-07 1.7576e-07 -2.47726e-07 1.23641e-06 8.22076e-09 -2.47726e-07 0 8.22076e-09 0 8.22076e-09 0 2.75065e-07 0 1.23641e-06 8.22076e-09 -2.72983e-07 2.75065e-07 -4.45346e-06 3.56954e-06 -1.60315e-05 -1.53388e-06 3.56954e-06 1.7576e-07 -1.53388e-06 1.23641e-06 -1.53388e-06 1.23641e-06 -3.73215e-06 -2.72983e-07 -1.60315e-05 -1.53388e-06 4.42036e-06 -3.73215e-06 -0.000246142 5.21432e-05 0.000573968 -8.0382e-05 5.21432e-05 8.13093e-05 -8.0382e-05 -6.30183e-05 -8.0382e-05 -6.30183e-05 0.000584115 2.2865e-05 0.000573968 -8.0382e-05 0.00119995 0.000584115 8.13093e-05 7.73519e-06 -6.30183e-05 8.24328e-06 7.73519e-06 -8.54346e-06 8.24328e-06 6.64117e-06 8.24328e-06 6.64117e-06 -4.7159e-05 -4.45346e-06 -6.30183e-05 8.24328e-06 2.2865e-05 -4.7159e-05 2.2865e-05 -4.7159e-05 0.000192956 1.17768e-05 -4.7159e-05 -4.45346e-06 1.17768e-05 -1.60315e-05 1.17768e-05 -1.60315e-05 4.36562e-05 4.42036e-06 0.000192956 1.17768e-05 -1.09509e-05 4.36562e-05 0.00119995 0.000584115 -0.000585179 0.000248008 0.000584115 2.2865e-05 0.000248008 0.000192956 0.000248008 0.000192956 -0.000341591 -1.09509e-05 -0.000585179 0.000248008 -0.000105569 -0.000341591 -0.000105569 -0.000341591 0.00161035 0.000232083 -0.000341591 -1.09509e-05 0.000232083 -0.00011465 0.000232083 -0.00011465 0.000596826 0.000105761 0.00161035 0.000232083 -0.00031316 0.000596826 -1.09509e-05 4.36562e-05 -0.00011465 -2.32915e-05 4.36562e-05 4.42036e-06 -2.32915e-05 9.98648e-06 -2.32915e-05 9.98648e-06 -4.26471e-05 -7.85279e-06 -0.00011465 -2.32915e-05 0.000105761 -4.26471e-05 0.000105761 -4.26471e-05 0.000287195 3.95871e-05 -4.26471e-05 -7.85279e-06 3.95871e-05 -2.20741e-05 3.95871e-05 -2.20741e-05 0.000170469 4.89407e-06 0.000287195 3.95871e-05 -4.35642e-05 0.000170469 -0.00031316 0.000596826 -0.00391377 -0.000375613 0.000596826 0.000105761 -0.000375613 0.000287195 -0.000375613 0.000287195 -0.00230396 -4.35642e-05 -0.00391377 -0.000375613 -0.00282388 -0.00230396 4.42036e-06 -3.73215e-06 9.98648e-06 1.56686e-06 -3.73215e-06 -2.72983e-07 1.56686e-06 -8.83548e-07 1.56686e-06 -8.83548e-07 3.55597e-06 2.78282e-07 9.98648e-06 1.56686e-06 -7.85279e-06 3.55597e-06 -2.72983e-07 2.75065e-07 -8.83548e-07 -1.11999e-08 2.75065e-07 0 -1.11999e-08 0 -1.11999e-08 0 -2.64666e-07 0 -8.83548e-07 -1.11999e-08 2.78282e-07 -2.64666e-07 2.78282e-07 -2.64666e-07 1.77488e-06 -9.59262e-08 -2.64666e-07 0 -9.59262e-08 0 -9.59262e-08 0 7.61957e-07 0 1.77488e-06 -9.59262e-08 4.58912e-07 7.61957e-07 -7.85279e-06 3.55597e-06 -2.20741e-05 -1.8646e-06 3.55597e-06 2.78282e-07 -1.8646e-06 1.77488e-06 -1.8646e-06 1.77488e-06 -1.25943e-05 4.58912e-07 -2.20741e-05 -1.8646e-06 4.89407e-06 -1.25943e-05 4.89407e-06 -1.25943e-05 8.53382e-05 -8.78621e-06 -1.25943e-05 4.58912e-07 -8.78621e-06 -5.65209e-06 -8.78621e-06 -5.65209e-06 2.22383e-05 -9.08529e-06 8.53382e-05 -8.78621e-06 0.000127831 2.22383e-05 4.58912e-07 7.61957e-07 -5.65209e-06 1.05917e-06 7.61957e-07 0 1.05917e-06 0 1.05917e-06 0 -7.16738e-07 0 -5.65209e-06 1.05917e-06 -9.08529e-06 -7.16738e-07 -9.08529e-06 -7.16738e-07 -3.32314e-06 -2.93594e-06 -7.16738e-07 0 -2.93594e-06 0 -2.93594e-06 0 -3.23402e-06 0 -3.32314e-06 -2.93594e-06 5.16096e-06 -3.23402e-06 0.000127831 2.22383e-05 5.53643e-05 5.23837e-05 2.22383e-05 -9.08529e-06 5.23837e-05 -3.32314e-06 5.23837e-05 -3.32314e-06 5.40395e-05 5.16096e-06 5.53643e-05 5.23837e-05 -6.16592e-05 5.40395e-05 -0.00282388 -0.00230396 0.00849319 -0.00315066 -0.00230396 -4.35642e-05 -0.00315066 -0.0011179 -0.00315066 -0.0011179 -0.00016943 -0.00213783 0.00849319 -0.00315066 0.0295168 -0.00016943 -4.35642e-05 0.000170469 -0.0011179 0.00012364 0.000170469 4.89407e-06 0.00012364 8.53382e-05 0.00012364 8.53382e-05 -0.000272507 0.000127831 -0.0011179 0.00012364 -0.00213783 -0.000272507 -0.00213783 -0.000272507 -0.00200813 -0.000751905 -0.000272507 0.000127831 -0.000751905 5.53643e-05 -0.000751905 5.53643e-05 -0.00094848 -6.16592e-05 -0.00200813 -0.000751905 -0.000911881 -0.00094848 0.0295168 -0.00016943 0.0517422 0.00622554 -0.00016943 -0.00213783 0.00622554 -0.00200813 0.00622554 -0.00200813 0.0123488 -0.000911881 0.0517422 0.00622554 0.0663572 0.0123488 0.0629494 0.0580843 0.18403 0.172018 0.0580843 0.0244279 0.172018 0.141893 0.172018 0.141893 0.321357 0.289375 0.18403 0.172018 0.344244 0.321357 0.0244279 -0.0132406 0.141893 0.0744768 -0.0132406 -0.0182801 0.0744768 0.009117 0.0744768 0.009117 0.223837 0.118246 0.141893 0.0744768 0.289375 0.223837 0.289375 0.223837 0.432902 0.376373 0.223837 0.118246 0.376373 0.272072 0.376373 0.272072 0.503801 0.410743 0.432902 0.376373 0.574043 0.503801 0.344244 0.321357 0.507912 0.481281 0.321357 0.289375 0.481281 0.432902 0.481281 0.432902 0.635207 0.574043 0.507912 0.481281 0.647997 0.635207 -0.0182801 -0.00309797 0.009117 -0.0132331 -0.00309797 0.0046351 -0.0132331 -0.00596336 -0.0132331 -0.00596336 0.0288178 -0.00587494 0.009117 -0.0132331 0.118246 0.0288178 0.0046351 0.00247873 -0.00596336 0.00138597 0.0024787