<?xml version="1.0" encoding="UTF-8"?>
<VTKFile type="UnstructuredGrid" version="0.1" byte_order="LittleEndian" compressor="vtkZLibDataCompressor">
    <UnstructuredGrid>
        <Piece NumberOfPoints="4096" NumberOfCells="1024">
            <Points>
                <DataArray type="Float64" Name="Array" NumberOfComponents="3" format="ascii" RangeMin="0" RangeMax="1">0 0 0 0.03125 0 0 0 0.03125 0 0.03125 0.03125 0 0.03125 0 0 0.0625 0 0 0.03125 0.03125 0 0.0625 0.03125 0 0.03125 0.03125 0 0.0625 0.03125 0 0.03125 0.0625 0 0.0625 0.0625 0 0 0.03125 0 0.03125 0.03125 0 0 0.0625 0 0.03125 0.0625 0 0.0625 0 0 0.09375 0 0 0.0625 0.03125 0 0.09375 0.03125 0 0.09375 0 0 0.125 0 0 0.09375 0.03125 0 0.125 0.03125 0 0.09375 0.03125 0 0.125 0.03125 0 0.09375 0.0625 0 0.125 0.0625 0 0.0625 0.03125 0 0.09375 0.03125 0 0.0625 0.0625 0 0.09375 0.0625 0 0.0625 0.0625 0 0.09375 0.0625 0 0.0625 0.09375 0 0.09375 0.09375 0 0.09375 0.0625 0 0.125 0.0625 0 0.09375 0.09375 0 0.125 0.09375 0 0.09375 0.09375 0 0.125 0.09375 0 0.09375 0.125 0 0.125 0.125 0 0.0625 0.09375 0 0.09375 0.09375 0 0.0625 0.125 0 0.09375 0.125 0 0 0.0625 0 0.03125 0.0625 0 0 0.09375 0 0.03125 0.09375 0 0.03125 0.0625 0 0.0625 0.0625 0 0.03125 0.09375 0 0.0625 0.09375 0 0.03125 0.09375 0 0.0625 0.09375 0 0.03125 0.125 0 0.0625 0.125 0 0 0.09375 0 0.03125 0.09375 0 0 0.125 0 0.03125 0.125 0 0.125 0 0 0.15625 0 0 0.125 0.03125 0 0.15625 0.03125 0 0.15625 0 0 0.1875 0 0 0.15625 0.03125 0 0.1875 0.03125 0 0.15625 0.03125 0 0.1875 0.03125 0 0.15625 0.0625 0 0.1875 0.0625 0 0.125 0.03125 0 0.15625 0.03125 0 0.125 0.0625 0 0.15625 0.0625 0 0.1875 0 0 0.21875 0 0 0.1875 0.03125 0 0.21875 0.03125 0 0.21875 0 0 0.25 0 0 0.21875 0.03125 0 0.25 0.03125 0 0.21875 0.03125 0 0.25 0.03125 0 0.21875 0.0625 0 0.25 0.0625 0 0.1875 0.03125 0 0.21875 0.03125 0 0.1875 0.0625 0 0.21875 0.0625 0 0.1875 0.0625 0 0.21875 0.0625 0 0.1875 0.09375 0 0.21875 0.09375 0 0.21875 0.0625 0 0.25 0.0625 0 0.21875 0.09375 0 0.25 0.09375 0 0.21875 0.09375 0 0.25 0.09375 0 0.21875 0.125 0 0.25 0.125 0 0.1875 0.09375 0 0.21875 0.09375 0 0.1875 0.125 0 0.21875 0.125 0 0.125 0.0625 0 0.15625 0.0625 0 0.125 0.09375 0 0.15625 0.09375 0 0.15625 0.0625 0 0.1875 0.0625 0 0.15625 0.09375 0 0.1875 0.09375 0 0.15625 0.09375 0 0.1875 0.09375 0 0.15625 0.125 0 0.1875 0.125 0 0.125 0.09375 0 0.15625 0.09375 0 0.125 0.125 0 0.15625 0.125 0 0.125 0.125 0 0.15625 0.125 0 0.125 0.15625 0 0.15625 0.15625 0 0.15625 0.125 0 0.1875 0.125 0 0.15625 0.15625 0 0.1875 0.15625 0 0.15625 0.15625 0 0.1875 0.15625 0 0.15625 0.1875 0 0.1875 0.1875 0 0.125 0.15625 0 0.15625 0.15625 0 0.125 0.1875 0 0.15625 0.1875 0 0.1875 0.125 0 0.21875 0.125 0 0.1875 0.15625 0 0.21875 0.15625 0 0.21875 0.125 0 0.25 0.125 0 0.21875 0.15625 0 0.25 0.15625 0 0.21875 0.15625 0 0.25 0.15625 0 0.21875 0.1875 0 0.25 0.1875 0 0.1875 0.15625 0 0.21875 0.15625 0 0.1875 0.1875 0 0.21875 0.1875 0 0.1875 0.1875 0 0.21875 0.1875 0 0.1875 0.21875 0 0.21875 0.21875 0 0.21875 0.1875 0 0.25 0.1875 0 0.21875 0.21875 0 0.25 0.21875 0 0.21875 0.21875 0 0.25 0.21875 0 0.21875 0.25 0 0.25 0.25 0 0.1875 0.21875 0 0.21875 0.21875 0 0.1875 0.25 0 0.21875 0.25 0 0.125 0.1875 0 0.15625 0.1875 0 0.125 0.21875 0 0.15625 0.21875 0 0.15625 0.1875 0 0.1875 0.1875 0 0.15625 0.21875 0 0.1875 0.21875 0 0.15625 0.21875 0 0.1875 0.21875 0 0.15625 0.25 0 0.1875 0.25 0 0.125 0.21875 0 0.15625 0.21875 0 0.125 0.25 0 0.15625 0.25 0 0 0.125 0 0.03125 0.125 0 0 0.15625 0 0.03125 0.15625 0 0.03125 0.125 0 0.0625 0.125 0 0.03125 0.15625 0 0.0625 0.15625 0 0.03125 0.15625 0 0.0625 0.15625 0 0.03125 0.1875 0 0.0625 0.1875 0 0 0.15625 0 0.03125 0.15625 0 0 0.1875 0 0.03125 0.1875 0 0.0625 0.125 0 0.09375 0.125 0 0.0625 0.15625 0 0.09375 0.15625 0 0.09375 0.125 0 0.125 0.125 0 0.09375 0.15625 0 0.125 0.15625 0 0.09375 0.15625 0 0.125 0.15625 0 0.09375 0.1875 0 0.125 0.1875 0 0.0625 0.15625 0 0.09375 0.15625 0 0.0625 0.1875 0 0.09375 0.1875 0 0.0625 0.1875 0 0.09375 0.1875 0 0.0625 0.21875 0 0.09375 0.21875 0 0.09375 0.1875 0 0.125 0.1875 0 0.09375 0.21875 0 0.125 0.21875 0 0.09375 0.21875 0 0.125 0.21875 0 0.09375 0.25 0 0.125 0.25 0 0.0625 0.21875 0 0.09375 0.21875 0 0.0625 0.25 0 0.09375 0.25 0 0 0.1875 0 0.03125 0.1875 0 0 0.21875 0 0.03125 0.21875 0 0.03125 0.1875 0 0.0625 0.1875 0 0.03125 0.21875 0 0.0625 0.21875 0 0.03125 0.21875 0 0.0625 0.21875 0 0.03125 0.25 0 0.0625 0.25 0 0 0.21875 0 0.03125 0.21875 0 0 0.25 0 0.03125 0.25 0 0.25 0 0 0.28125 0 0 0.25 0.03125 0 0.28125 0.03125 0 0.28125 0 0 0.3125 0 0 0.28125 0.03125 0 0.3125 0.03125 0 0.28125 0.03125 0 0.3125 0.03125 0 0.28125 0.0625 0 0.3125 0.0625 0 0.25 0.03125 0 0.28125 0.03125 0 0.25 0.0625 0 0.28125 0.0625 0 0.3125 0 0 0.34375 0 0 0.3125 0.03125 0 0.34375 0.03125 0 0.34375 0 0 0.375 0 0 0.34375 0.03125 0 0.375 0.03125 0 0.34375 0.03125 0 0.375 0.03125 0 0.34375 0.0625 0 0.375 0.0625 0 0.3125 0.03125 0 0.34375 0.03125 0 0.3125 0.0625 0 0.34375 0.0625 0 0.3125 0.0625 0 0.34375 0.0625 0 0.3125 0.09375 0 0.34375 0.09375 0 0.34375 0.0625 0 0.375 0.0625 0 0.34375 0.09375 0 0.375 0.09375 0 0.34375 0.09375 0 0.375 0.09375 0 0.34375 0.125 0 0.375 0.125 0 0.3125 0.09375 0 0.34375 0.09375 0 0.3125 0.125 0 0.34375 0.125 0 0.25 0.0625 0 0.28125 0.0625 0 0.25 0.09375 0 0.28125 0.09375 0 0.28125 0.0625 0 0.3125 0.0625 0 0.28125 0.09375 0 0.3125 0.09375 0 0.28125 0.09375 0 0.3125 0.09375 0 0.28125 0.125 0 0.3125 0.125 0 0.25 0.09375 0 0.28125 0.09375 0 0.25 0.125 0 0.28125 0.125 0 0.375 0 0 0.40625 0 0 0.375 0.03125 0 0.40625 0.03125 0 0.40625 0 0 0.4375 0 0 0.40625 0.03125 0 0.4375 0.03125 0 0.40625 0.03125 0 0.4375 0.03125 0 0.40625 0.0625 0 0.4375 0.0625 0 0.375 0.03125 0 0.40625 0.03125 0 0.375 0.0625 0 0.40625 0.0625 0 0.4375 0 0 0.46875 0 0 0.4375 0.03125 0 0.46875 0.03125 0 0.46875 0 0 0.5 0 0 0.46875 0.03125 0 0.5 0.03125 0 0.46875 0.03125 0 0.5 0.03125 0 0.46875 0.0625 0 0.5 0.0625 0 0.4375 0.03125 0 0.46875 0.03125 0 0.4375 0.0625 0 0.46875 0.0625 0 0.4375 0.0625 0 0.46875 0.0625 0 0.4375 0.09375 0 0.46875 0.09375 0 0.46875 0.0625 0 0.5 0.0625 0 0.46875 0.09375 0 0.5 0.09375 0 0.46875 0.09375 0 0.5 0.09375 0 0.46875 0.125 0 0.5 0.125 0 0.4375 0.09375 0 0.46875 0.09375 0 0.4375 0.125 0 0.46875 0.125 0 0.375 0.0625 0 0.40625 0.0625 0 0.375 0.09375 0 0.40625 0.09375 0 0.40625 0.0625 0 0.4375 0.0625 0 0.40625 0.09375 0 0.4375 0.09375 0 0.40625 0.09375 0 0.4375 0.09375 0 0.40625 0.125 0 0.4375 0.125 0 0.375 0.09375 0 0.40625 0.09375 0 0.375 0.125 0 0.40625 0.125 0 0.375 0.125 0 0.40625 0.125 0 0.375 0.15625 0 0.40625 0.15625 0 0.40625 0.125 0 0.4375 0.125 0 0.40625 0.15625 0 0.4375 0.15625 0 0.40625 0.15625 0 0.4375 0.15625 0 0.40625 0.1875 0 0.4375 0.1875 0 0.375 0.15625 0 0.40625 0.15625 0 0.375 0.1875 0 0.40625 0.1875 0 0.4375 0.125 0 0.46875 0.125 0 0.4375 0.15625 0 0.46875 0.15625 0 0.46875 0.125 0 0.5 0.125 0 0.46875 0.15625 0 0.5 0.15625 0 0.46875 0.15625 0 0.5 0.15625 0 0.46875 0.1875 0 0.5 0.1875 0 0.4375 0.15625 0 0.46875 0.15625 0 0.4375 0.1875 0 0.46875 0.1875 0 0.4375 0.1875 0 0.46875 0.1875 0 0.4375 0.21875 0 0.46875 0.21875 0 0.46875 0.1875 0 0.5 0.1875 0 0.46875 0.21875 0 0.5 0.21875 0 0.46875 0.21875 0 0.5 0.21875 0 0.46875 0.25 0 0.5 0.25 0 0.4375 0.21875 0 0.46875 0.21875 0 0.4375 0.25 0 0.46875 0.25 0 0.375 0.1875 0 0.40625 0.1875 0 0.375 0.21875 0 0.40625 0.21875 0 0.40625 0.1875 0 0.4375 0.1875 0 0.40625 0.21875 0 0.4375 0.21875 0 0.40625 0.21875 0 0.4375 0.21875 0 0.40625 0.25 0 0.4375 0.25 0 0.375 0.21875 0 0.40625 0.21875 0 0.375 0.25 0 0.40625 0.25 0 0.25 0.125 0 0.28125 0.125 0 0.25 0.15625 0 0.28125 0.15625 0 0.28125 0.125 0 0.3125 0.125 0 0.28125 0.15625 0 0.3125 0.15625 0 0.28125 0.15625 0 0.3125 0.15625 0 0.28125 0.1875 0 0.3125 0.1875 0 0.25 0.15625 0 0.28125 0.15625 0 0.25 0.1875 0 0.28125 0.1875 0 0.3125 0.125 0 0.34375 0.125 0 0.3125 0.15625 0 0.34375 0.15625 0 0.34375 0.125 0 0.375 0.125 0 0.34375 0.15625 0 0.375 0.15625 0 0.34375 0.15625 0 0.375 0.15625 0 0.34375 0.1875 0 0.375 0.1875 0 0.3125 0.15625 0 0.34375 0.15625 0 0.3125 0.1875 0 0.34375 0.1875 0 0.3125 0.1875 0 0.34375 0.1875 0 0.3125 0.21875 0 0.34375 0.21875 0 0.34375 0.1875 0 0.375 0.1875 0 0.34375 0.21875 0 0.375 0.21875 0 0.34375 0.21875 0 0.375 0.21875 0 0.34375 0.25 0 0.375 0.25 0 0.3125 0.21875 0 0.34375 0.21875 0 0.3125 0.25 0 0.34375 0.25 0 0.25 0.1875 0 0.28125 0.1875 0 0.25 0.21875 0 0.28125 0.21875 0 0.28125 0.1875 0 0.3125 0.1875 0 0.28125 0.21875 0 0.3125 0.21875 0 0.28125 0.21875 0 0.3125 0.21875 0 0.28125 0.25 0 0.3125 0.25 0 0.25 0.21875 0 0.28125 0.21875 0 0.25 0.25 0 0.28125 0.25 0 0.25 0.25 0 0.28125 0.25 0 0.25 0.28125 0 0.28125 0.28125 0 0.28125 0.25 0 0.3125 0.25 0 0.28125 0.28125 0 0.3125 0.28125 0 0.28125 0.28125 0 0.3125 0.28125 0 0.28125 0.3125 0 0.3125 0.3125 0 0.25 0.28125 0 0.28125 0.28125 0 0.25 0.3125 0 0.28125 0.3125 0 0.3125 0.25 0 0.34375 0.25 0 0.3125 0.28125 0 0.34375 0.28125 0 0.34375 0.25 0 0.375 0.25 0 0.34375 0.28125 0 0.375 0.28125 0 0.34375 0.28125 0 0.375 0.28125 0 0.34375 0.3125 0 0.375 0.3125 0 0.3125 0.28125 0 0.34375 0.28125 0 0.3125 0.3125 0 0.34375 0.3125 0 0.3125 0.3125 0 0.34375 0.3125 0 0.3125 0.34375 0 0.34375 0.34375 0 0.34375 0.3125 0 0.375 0.3125 0 0.34375 0.34375 0 0.375 0.34375 0 0.34375 0.34375 0 0.375 0.34375 0 0.34375 0.375 0 0.375 0.375 0 0.3125 0.34375 0 0.34375 0.34375 0 0.3125 0.375 0 0.34375 0.375 0 0.25 0.3125 0 0.28125 0.3125 0 0.25 0.34375 0 0.28125 0.34375 0 0.28125 0.3125 0 0.3125 0.3125 0 0.28125 0.34375 0 0.3125 0.34375 0 0.28125 0.34375 0 0.3125 0.34375 0 0.28125 0.375 0 0.3125 0.375 0 0.25 0.34375 0 0.28125 0.34375 0 0.25 0.375 0 0.28125 0.375 0 0.375 0.25 0 0.40625 0.25 0 0.375 0.28125 0 0.40625 0.28125 0 0.40625 0.25 0 0.4375 0.25 0 0.40625 0.28125 0 0.4375 0.28125 0 0.40625 0.28125 0 0.4375 0.28125 0 0.40625 0.3125 0 0.4375 0.3125 0 0.375 0.28125 0 0.40625 0.28125 0 0.375 0.3125 0 0.40625 0.3125 0 0.4375 0.25 0 0.46875 0.25 0 0.4375 0.28125 0 0.46875 0.28125 0 0.46875 0.25 0 0.5 0.25 0 0.46875 0.28125 0 0.5 0.28125 0 0.46875 0.28125 0 0.5 0.28125 0 0.46875 0.3125 0
[...]
            <PointData>
                <DataArray Name="u" type="Float64" format="ascii">0 0 0 0.00602074 0 0 0.00602074 -0.00228992 0.00602074 -0.00228992 -0.00228992 -0.000382126 0 0.00602074 0 -0.00228992 0 0 -0.00228992 0.00300366 0 0 0.00300366 -0.00205462 0.00300366 -0.00205462 -0.00185797 0.0112327 -0.00228992 0.00300366 -0.000382126 -0.00185797 -0.000382126 -0.00185797 -0.00185797 0.0156676 -0.00185797 0.0112327 0.0156676 0.0505905 0.0156676 0.0505905 0.0505905 0.115933 -0.00185797 0.0156676 0.0112327 0.0505905 0 -0.00228992 0 0.00300366 -0.00228992 -0.000382126 0.00300366 -0.00185797 0.00300366 -0.00185797 -0.00205462 0.0112327 0 0.00300366 0 -0.00205462 0 0 -0.00205462 -0.00254261 0 0 -0.00254261 0.00678691 -0.00254261 0.00678691 0.0318725 0.0606689 -0.00205462 -0.00254261 0.0112327 0.0318725 0 0 0.00678691 0.0216952 0 0 0.0216952 0.0274607 0.0216952 0.0274607 0.0935209 0.114448 0.00678691 0.0216952 0.0606689 0.0935209 0.0606689 0.0935209 0.156524 0.203176 0.0935209 0.114448 0.203176 0.235411 0.203176 0.235411 0.320547 0.35463 0.156524 0.203176 0.264964 0.320547 0.0112327 0.0318725 0.0505905 0.100997 0.0318725 0.0606689 0.100997 0.156524 0.100997 0.156524 0.19356 0.264964 0.0505905 0.100997 0.115933 0.19356 0.115933 0.19356 0.19356 0.286526 0.19356 0.264964 0.286526 0.364416 0.286526 0.364416 0.364416 0.448048 0.19356 0.286526 0.264964 0.364416 0.264964 0.320547 0.364416 0.424185 0.320547 0.35463 0.424185 0.461014 0.424185 0.461014 0.509279 0.550258 0.364416 0.424185 0.448048 0.509279 0.448048 0.509279 0.509279 0.573907 0.509279 0.550258 0.573907 0.61558 0.573907 0.61558 0.61558 0.657504 0.509279 0.573907 0.550258 0.61558 0.264964 0.364416 0.320547 0.424185 0.364416 0.448048 0.424185 0.509279 0.424185 0.509279 0.461014 0.550258 0.320547 0.424185 0.35463 0.461014 0 -0.00205462 0 -0.00254261 -0.00205462 0.0112327 -0.00254261 0.0318725 -0.00254261 0.0318725 0.00678691 0.0606689 0 -0.00254261 0 0.00678691 0.0112327 0.0505905 0.0318725 0.100997 0.0505905 0.115933 0.100997 0.19356 0.100997 0.19356 0.156524 0.264964 0.0318725 0.100997 0.0606689 0.156524 0.0606689 0.156524 0.0935209 0.203176 0.156524 0.264964 0.203176 0.320547 0.203176 0.320547 0.235411 0.35463 0.0935209 0.203176 0.114448 0.235411 0 0.00678691 0 0.0216952 0.00678691 0.0606689 0.0216952 0.0935209 0.0216952 0.0935209 0.0274607 0.114448 0 0.0216952 0 0.0274607 0 0 0.0274607 0.0326614 0 0 0.0326614 0.0176518 0.0326614 0.0176518 0.12337 0.113025 0.0274607 0.0326614 0.114448 0.12337 0 0 0.0176518 0.0133165 0 0 0.0133165 -0.0169453 0.0133165 -0.0169453 0.0868588 0.0529939 0.0176518 0.0133165 0.113025 0.0868588 0.113025 0.0868588 0.239124 0.207347 0.0868588 0.0529939 0.207347 0.160774 0.207347 0.160774 0.331481 0.271634 0.239124 0.207347 0.357316 0.331481 0.114448 0.12337 0.235411 0.245705 0.12337 0.113025 0.245705 0.239124 0.245705 0.239124 0.369612 0.357316 0.235411 0.245705 0.35463 0.369612 0 0 -0.0169453 -0.00783817 0 0 -0.00783817 0.00472407 -0.00783817 0.00472407 -0.00716823 -0.0105465 -0.0169453 -0.00783817 0.0529939 -0.00716823 0 0 0.00472407 0.000910024 0 0 0.000910024 -8.42397e-05 0.000910024 -8.42397e-05 0.00235447 0.000427694 0.00472407 0.000910024 -0.0105465 0.00235447 -0.0105465 0.00235447 0.0107964 -0.0074809 0.00235447 0.000427694 -0.0074809 0.000865649 -0.0074809 0.000865649 0.0143764 -0.00509796 0.0107964 -0.0074809 0.11589 0.0143764 0.0529939 -0.00716823 0.160774 0.0984177 -0.00716823 -0.0105465 0.0984177 0.0107964 0.0984177 0.0107964 0.210756 0.11589 0.160774 0.0984177 0.271634 0.210756 0.271634 0.210756 0.380922 0.296382 0.210756 0.11589 0.296382 0.221964 0.296382 0.221964 0.378208 0.290553 0.380922 0.296382 0.467206 0.378208 0.11589 0.0143764 0.221964 0.0909073 0.0143764 -0.00509796 0.0909073 0.00808436 0.0909073 0.00808436 0.177868 0.0451375 0.221964 0.0909073 0.290553 0.177868 0.290553 0.177868 0.339491 0.23875 0.177868 0.0451375 0.23875 0.0918671 0.23875 0.0918671 0.274086 0.126612 0.339491 0.23875 0.372733 0.274086 0.467206 0.378208 0.525327 0.445696 0.378208 0.290553 0.445696 0.339491 0.445696 0.339491 0.489765 0.372733 0.525327 0.445696 0.563698 0.489765 0.35463 0.369612 0.461014 0.476137 0.369612 0.357316 0.476137 0.466088 0.476137 0.466088 0.562234 0.557 0.461014 0.476137 0.550258 0.562234 0.357316 0.331481 0.466088 0.432275 0.331481 0.271634 0.432275 0.380922 0.432275 0.380922 0.515599 0.467206 0.466088 0.432275 0.557 0.515599 0.557 0.515599 0.621525 0.585739 0.515599 0.467206 0.585739 0.525327 0.585739 0.525327 0.627637 0.563698 0.621525 0.585739 0.662863 0.627637 0.550258 0.562234 0.61558 0.63127 0.562234 0.557 0.63127 0.621525 0.63127 0.621525 0.672707 0.662863 0.61558 0.63127 0.657504 0.672707 0.657504 0.672707 0.672707 0.693512 0.672707 0.662863 0.693512 0.677647 0.693512 0.677647 0.677647 0.669103 0.672707 0.693512 0.662863 0.677647 0.662863 0.627637 0.677647 0.649362 0.627637 0.563698 0.649362 0.576814 0.649362 0.576814 0.632557 0.571923 0.677647 0.649362 0.669103 0.632557 0.669103 0.632557 0.632557 0.60711 0.632557 0.571923 0.60711 0.53253 0.60711 0.53253 0.53253 0.486222 0.632557 0.60711 0.571923 0.53253 0.662863 0.677647 0.627637 0.649362 0.677647 0.669103 0.649362 0.632557 0.649362 0.632557 0.576814 0.571923 0.627637 0.649362 0.563698 0.576814 0.563698 0.489765 0.576814 0.504057 0.489765 0.372733 0.504057 0.388904 0.504057 0.388904 0.496656 0.381109 0.576814 0.504057 0.571923 0.496656 0.372733 0.274086 0.388904 0.285243 0.274086 0.126612 0.285243 0.143076 0.285243 0.143076 0.278292 0.135653 0.388904 0.285243 0.381109 0.278292 0.381109 0.278292 0.351937 0.247121 0.278292 0.135653 0.247121 0.11966 0.247121 0.11966 0.191284 0.088797 0.351937 0.247121 0.309226 0.191284 0.571923 0.496656 0.53253 0.46177 0.496656 0.381109 0.46177 0.351937 0.46177 0.351937 0.403293 0.309226 0.53253 0.46177 0.486222 0.403293 0.486222 0.403293 0.403293 0.323382 0.403293 0.309226 0.323382 0.235756 0.323382 0.235756 0.235756 0.152944 0.403293 0.323382 0.309226 0.235756 0.309226 0.191284 0.235756 0.135192 0.191284 0.088797 0.135192 0.052483 0.135192 0.052483 0.0768474 0.0231544 0.235756 0.135192 0.152944 0.0768474 0.152944 0.0768474 0.0768474 0.0295599 0.0768474 0.0231544 0.0295599 0.00659561 0.0295599 0.00659561 0.00659561 0.000993132 0.0768474 0.0295599 0.0231544 0.00659561 0.309226 0.235756 0.191284 0.135192 0.235756 0.152944 0.135192 0.0768474 0.135192 0.0768474 0.052483 0.0231544 0.191284 0.135192 0.088797 0.052483 0.563698 0.576814 0.489765 0.504057 0.576814 0.571923 0.504057 0.496656 0.504057 0.496656 0.388904 0.381109 0.489765 0.504057 0.372733 0.388904 0.571923 0.53253 0.496656 0.46177 0.53253 0.486222 0.46177 0.403293 0.46177 0.403293 0.351937 0.309226 0.496656 0.46177 0.381109 0.351937 0.381109 0.351937 0.278292 0.247121 0.351937 0.309226 0.247121 0.191284 0.247121 0.191284 0.11966 0.088797 0.278292 0.247121 0.135653 0.11966 0.372733 0.388904 0.274086 0.285243 0.388904 0.381109 0.285243 0.278292 0.285243 0.278292 0.143076 0.135653 0.274086 0.285243 0.126612 0.143076 0 0.0274607 0 0.0326614 0.0274607 0.114448 0.0326614 0.12337 0.0326614 0.12337 0.0176518 0.113025 0 0.0326614 0 0.0176518 0.114448 0.235411 0.12337 0.245705 0.235411 0.35463 0.245705 0.369612 0.245705 0.369612 0.239124 0.357316 0.12337 0.245705 0.113025 0.239124 0.113025 0.239124 0.0868588 0.207347 0.239124 0.357316 0.207347 0.331481 0.207347 0.331481 0.160774 0.271634 0.0868588 0.207347 0.0529939 0.160774 0 0.0176518 0 0.0133165 0.0176518 0.113025 0.0133165 0.0868588 0.0133165 0.0868588 -0.0169453 0.0529939 0 0.0133165 0 -0.0169453 0.35463 0.461014 0.369612 0.476137 0.461014 0.550258 0.476137 0.562234 0.476137 0.562234 0.466088 0.557 0.369612 0.476137 0.357316 0.466088 0.550258 0.61558 0.562234 0.63127 0.61558 0.657504 0.63127 0.672707 0.63127 0.672707 0.621525 0.662863 0.562234 0.63127 0.557 0.621525 0.557 0.621525 0.515599 0.585739 0.621525 0.662863 0.585739 0.627637 0.585739 0.627637 0.525327 0.563698 0.515599 0.585739 0.467206 0.525327 0.357316 0.466088 0.331481 0.432275 0.466088 0.557 0.432275 0.515599 0.432275 0.515599 0.380922 0.467206 0.331481 0.432275 0.271634 0.380922 0.271634 0.380922 0.210756 0.296382 0.380922 0.467206 0.296382 0.378208 0.296382 0.378208 0.221964 0.290553 0.210756 0.296382 0.11589 0.221964 0.467206 0.525327 0.378208 0.445696 0.525327 0.563698 0.445696 0.489765 0.445696 0.489765 0.339491 0.372733 0.378208 0.445696 0.290553 0.339491 0.290553 0.339491 0.177868 0.23875 0.339491 0.372733 0.23875 0.274086 0.23875 0.274086 0.0918671 0.126612 0.177868 0.23875 0.0451375 0.0918671 0.11589 0.221964 0.0143764 0.0909073 0.221964 0.290553 0.0909073 0.177868 0.0909073 0.177868 0.00808436 0.0451375 0.0143764 0.0909073 -0.00509796 0.00808436 0 -0.0169453 0 -0.00783817 -0.0169453 0.0529939 -0.00783817 -0.00716823 -0.00783817 -0.00716823 0.00472407 -0.0105465 0 -0.00783817 0 0.00472407 0.0529939 0.160774 -0.00716823 0.0984177 0.160774 0.271634 0.0984177 0.210756 0.0984177 0.210756 0.0107964 0.11589 -0.00716823 0.0984177 -0.0105465 0.0107964 -0.0105465 0.0107964 0.00235447 -0.0074809 0.0107964 0.11589 -0.0074809 0.0143764 -0.0074809 0.0143764 0.000865649 -0.00509796 0.00235447 -0.0074809 0.000427694 0.000865649 0 0.00472407 0 0.000910024 0.00472407 -0.0105465 0.000910024 0.00235447 0.000910024 0.00235447 -8.42397e-05 0.000427694 0 0.000910024 0 -8.42397e-05 0 0 -8.42397e-05 0.000636376 0 0 0.000636376 0.000264335 0.000636376 0.000264335 -0.000959407 -0.000205143 -8.42397e-05 0.000636376 0.000427694 -0.000959407 0 0 0.000264335 -8.63409e-06 0 0 -8.63409e-06 -8.20026e-06 -8.63409e-06 -8.20026e-06 3.7422e-05 2.08675e-06 0.000264335 -8.63409e-06 -0.000205143 3.7422e-05 -0.000205143 3.7422e-05 7.42573e-05 -3.27987e-05 3.7422e-05 2.08675e-06 -3.27987e-05 3.87315e-06 -3.27987e-05 3.87315e-06 -2.17043e-05 -2.77978e-06 7.42573e-05 -3.27987e-05 0.000150954 -2.17043e-05 0.000427694 -0.000959407 0.000865649 0.00124176 -0.000959407 -0.000205143 0.00124176 7.42573e-05 0.00124176 7.42573e-05 -0.000730503 0.000150954 0.000865649 0.00124176 -0.00509796 -0.000730503 0 0 -8.20026e-06 1.57866e-06 0 0 1.57866e-06 -2.21275e-08 1.57866e-06 -2.21275e-08 -1.75322e-06 3.27487e-07 -8.20026e-06 1.57866e-06 2.08675e-06 -1.75322e-06 0 0 -2.21275e-08 -5.39728e-08 0 0 -5.39728e-08 1.51918e-08 -5.39728e-08 1.51918e-08 -1.67005e-08 -8.71719e-09 -2.21275e-08 -5.39728e-08 3.27487e-07 -1.67005e-08 3.27487e-07 -1.67005e-08 -2.13986e-07 6.27693e-08 -1.67005e-08 -8.71719e-09 6.27693e-08 -1.06277e-08 6.27693e-08 -1.06277e-08 2.00695e-08 1.79557e-08 -2.13986e-07 6.27693e-08 -4.50536e-07 2.00695e-08 2.08675e-06 -1.75322e-06 3.87315e-06 1.66309e-07 -1.75322e-06 3.27487e-07 1.66309e-07 -2.13986e-07 1.66309e-07 -2.13986e-07 2.10435e-06 -4.50536e-07 3.87315e-06 1.66309e-07 -2.77978e-06 2.10435e-06 -2.77978e-06 2.10435e-06 -2.49934e-05 6.12653e-08 2.10435e-06 -4.50536e-07 6.12653e-08 1.19216e-06 6.12653e-08 1.19216e-06 -1.19607e-05 1.43867e-06 -2.49934e-05 6.12653e-08 3.33881e-05 -1.19607e-05 -4.50536e-07 2.00695e-08 1.19216e-06 -3.47083e-07 2.00695e-08 1.79557e-08 -3.47083e-07 4.83603e-08 -3.47083e-07 4.83603e-08 1.6592e-07 -1.19852e-07 1.19216e-06 -3.47083e-07 1.43867e-06 1.6592e-07 1.43867e-06 1.6592e-07 -1.90021e-06 9.40113e-07 1.6592e-07 -1.19852e-07 9.40113e-07 -1.90914e-07 9.40113e-07 -1.90914e-07 1.18271e-06 -8.6485e-08 -1.90021e-06 9.40113e-07 -5.6413e-06 1.18271e-06 3.33881e-05 -1.19607e-05 9.70155e-05 -9.43595e-06 -1.19607e-05 1.43867e-06 -9.43595e-06 -1.90021e-06 -9.43595e-06 -1.90021e-06 5.97307e-06 -5.6413e-06 9.70155e-05 -9.43595e-06 0.000107771 5.97307e-06 -0.00509796 -0.000730503 0.00808436 -0.00254432 -0.000730503 0.000150954 -0.00254432 1.64006e-05 -0.00254432 1.64006e-05 0.000504547 -0.00133205 0.00808436 -0.00254432 0.0451375 0.000504547 0.000150954 -2.17043e-05 1.64006e-05 0.000121589 -2.17043e-05 -2.77978e-06 0.000121589 -2.49934e-05 0.000121589 -2.49934e-05 0.000116654 3.33881e-05 1.64006e-05 0.000121589 -0.00133205 0.000116654 -0.00133205 0.000116654 -0.00164585 -0.000250012 0.000116654 3.33881e-05 -0.000250012 9.70155e-05 -0.000250012 9.70155e-05 -0.000680522 0.000107771 -0.00164585 -0.000250012 -0.000674237 -0.000680522 0.0451375 0.000504547 0.0918671 0.012663 0.000504547 -0.00133205 0.012663 -0.00164585 0.012663 -0.00164585 0.0261353 -0.000674237 0.0918671 0.012663 0.126612 0.0261353 0 0 1.51918e-08 -2.24111e-09 0 0 -2.24111e-09 7.37116e-11 -2.24111e-09 7.37116e-11 3.44187e-09 -7.41652e-10 1.51918e-08 -2.24111e-09 -8.71719e-09 3.44187e-09 0 0 7.37116e-11 6.93487e-11 0 0 6.93487e-11 -2.62405e-11 6.93487e-11 -2.62405e-11 1.01563e-10 3.21416e-13 7.37116e-11 6.93487e-11 -7.41652e-10 1.01563e-10 -7.41652e-10 1.01563e-10 4.42911e-10 -1.8437e-10 1.01563e-10 3.21416e-13 -1.8437e-10 4.95525e-11 -1.8437e-10 4.95525e-11 -1.08745e-10 -3.22735e-11 4.42911e-10 -1.8437e-10 1.38496e-09 -1.08745e-10 -8.71719e-09 3.44187e-09 -1.06277e-08 4.21713e-10 3.44187e-09 -7.41652e-10 4.21713e-10 4.42911e-10 4.21713e-10 4.42911e-10 -6.90249e-09 1.38496e-09 -1.06277e-08 4.21713e-10 1.79557e-08 -6.90249e-09 0 0 -2.62405e-11 6.31119e-12 0 0 6.31119e-12 -1.03947e-12 6.31119e-12 -1.03947e-12 -3.94254e-12 1.96767e-12 -2.62405e-11 6.31119e-12 3.21416e-13 -3.94254e-12 0 0 -1.03947e-12 1.26403e-13 0 0 1.26403e-13 0 1.26403e-13 0 -2.70915e-13 0 -1.03947e-12 1.26403e-13 1.96767e-12 -2.70915e-13 1.96767e-12 -2.70915e-13 1.08096e-12 4.10474e-13 -2.70915e-13 0 4.10474e-13 0 4.10474e-13 0 1.27061e-12 0 1.08096e-12 4.10474e-13 -4.9415e-12 1.27061e-12 3.21416e-13 -3.94254e-12 4.95525e-11 -7.26234e-12 -3.94254e-12 1.96767e-12 -7.26234e-12 1.08096e-12 -7.26234e-12 1.08096e-12 1.98617e-11 -4.9415e-12 4.95525e-11 -7.26234e-12 -3.22735e-11 1.98617e-11 -3.22735e-11 1.98617e-11 -1.87838e-10 2.35216e-11 1.98617e-11 -4.9415e-12 2.35216e-11 1.25034e-12 2.35216e-11 1.25034e-12 -8.86658e-11 2.18327e-11 -1.87838e-10 2.35216e-11 2.46969e-10 -8.86658e-11 -4.9415e-12 1.27061e-12 1.25034e-12 -1.1487e-12 1.27061e-12 0 -1.1487e-12 0 -1.1487e-12 0 -3.52673e-12 0 1.25034e-12 -1.1487e-12 2.18327e-11 -3.52673e-12 2.18327e-11 -3.52673e-12 1.21322e-11 4.275e-13 -3.52673e-12 0 4.275e-13 0 4.275e-13 0 5.23429e-12 0 1.21322e-11 4.275e-13 -1.35526e-11 5.23429e-12 2.46969e-10 -8.86658e-11 5.60392e-10 -1.04123e-10 -8.86658e-11 2.18327e-11 -1.04123e-10 1.21322e-11 -1.04123e-10 1.21322e-11 -1.35683e-11 -1.35526e-11 5.60392e-10 -1.04123e-10 4.08597e-10 -1.35683e-11 1.79557e-08 -6.90249e-09 4.83603e-08 1.48021e-09 -6.90249e-09 1.38496e-09 1.48021e-09 -2.88464e-09 1.48021e-09 -2.88464e-09 3.02877e-08 -4.18454e-09 4.83603e-08 1.48021e-09 -1.19852e-07 3.02877e-08 1.38496e-09 -1.08745e-10 -2.88464e-09 9.34409e-10 -1.08745e-10 -3.22735e-11 9.34409e-10 -1.87838e-10 9.34409e-10 -1.87838e-10 -7.40602e-11 2.46969e-10 -2.88464e-09 9.34409e-10 -4.18454e-09 -7.40602e-11 -4.18454e-09 -7.40602e-11 3.76205e-09 -2.07529e-09 -7.40602e-11 2.46969e-10 -2.07529e-09 5.60392e-10 -2.07529e-09 5.60392e-10 -2.82543e-09 4.08597e-10 3.76205e-09 -2.07529e-09 1.21888e-08 -2.82543e-09 -1.19852e-07 3.02877e-08 -1.90914e-07 1.61057e-08 3.02877e-08 -4.18454e-09 1.61057e-08 3.76205e-09 1.61057e-08 3.76205e-09 -2.63047e-08 1.21888e-08 -1.90914e-07 1.61057e-08 -8.6485e-08 -2.63047e-08 -8.6485e-08 -2.63047e-08 1.57409e-07 -6.51151e-08 -2.63047e-08 1.21888e-08 -6.51151e-08 1.2934e-08 -6.51151e-08 1.2934e-08 -3.49754e-08 3.13255e-09 1.57409e-07 -6.51151e-08 1.69885e-07 -3.49754e-08 1.21888e-08 -2.82543e-09 1.2934e-08 -1.28582e-09 -2.82543e-09 4.08597e-10 -1.28582e-09 -1.37061e-10 -1.28582e-09 -1.37061e-10 3.62027e-10 -1.98081e-10 1.2934e-08 -1.28582e-09 3.13255e-09 3.62027e-10 3.13255e-09 3.62027e-10 1.57942e-09 -7.90019e-10 3.62027e-10 -1.98081e-10 -7.90019e-10 2.6152e-10 -7.90019e-10 2.6152e-10 -1.17255e-09 2.08543e-10 1.57942e-09 -7.90019e-10 4.38602e-09 -1.17255e-09 1.69885e-07 -3.49754e-08 -1.96532e-08 -4.78393e-10 -3.49754e-08 3.13255e-09 -4.78393e-10 1.57942e-09 -4.78393e-10 1.57942e-09 -7.51714e-09 4.38602e-09 -1.96532e-08 -4.78393e-10 -3.95088e-08 -7.51714e-09 4.08597e-10 -1.35683e-11 -1.37061e-10 1.01914e-10 -1.35683e-11 -1.35526e-11 1.01914e-10 -2.89327e-11 1.01914e-10 -2.89327e-11 3.91968e-11 -3.13142e-12 -1.37061e-10 1.01914e-10 -1.98081e-10 3.91968e-11 -1.35526e-11 5.23429e-12 -2.89327e-11 5.48839e-12 5.23429e-12 0 5.48839e-12 0 5.48839e-12 0 -5.69236e-13 0 -2.89327e-11 5.48839e-12 -3.13142e-12 -5.69236e-13 -3.13142e-12 -5.69236e-13 1.1586e-11 -1.09766e-12 -5.69236e-13 0 -1.09766e-12 0 -1.09766e-12 0 1.6468e-12 0 1.1586e-11 -1.09766e-12 -2.43754e-12 1.6468e-12 -1.98081e-10 3.91968e-11 2.6152e-10 -6.43176e-11 3.91968e-11 -3.13142e-12 -6.43176e-11 1.1586e-11 -6.43176e-11 1.1586e-11 -1.98037e-11 -2.43754e-12 2.6152e-10 -6.43176e-11 2.08543e-10 -1.98037e-11 2.08543e-10 -1.98037e-11 -6.13353e-11 2.34211e-11 -1.98037e-11 -2.43754e-12 2.34211e-11 -5.26155e-12 2.34211e-11 -5.26155e-12 2.27828e-12 1.10087e-12 -6.13353e-11 2.34211e-11 -3.86037e-11 2.27828e-12 -2.43754e-12 1.6468e-12 -5.26155e-12 7.2839e-13 1.6468e-12 0 7.2839e-13 0 7.2839e-13 0 -4.66128e-13 0 -5.26155e-12 7.2839e-13 1.10087e-12 -4.66128e-13 1.10087e-12 -4.66128e-13 8.50858e-13 -6.82808e-14 -4.66128e-13 0 -6.82808e-14 0 -6.82808e-14 0 8.87485e-14 0 8.50858e-13 -6.82808e-14 -3.51756e-13 8.87485e-14 -3.86037e-11 2.27828e-12 1.67427e-11 -4.75819e-12 2.27828e-12 1.10087e-12 -4.75819e-12 8.50858e-13 -4.75819e-12 8.50858e-13 6.63868e-13 -3.51756e-13 1.67427e-11 -4.75819e-12 2.21039e-12 6.63868e-13 -3.95088e-08 -7.51714e-09 2.19415e-08 -8.74209e-09 -7.51714e-09 4.38602e-09 -8.74209e-09 1.50182e-09 -8.74209e-09 1.50182e-09 6.79387e-10 -7.60441e-10 2.19415e-08 -8.74209e-09 9.40323e-09 6.79387e-10 4.38602e-09 -1.17255e-09 1.50182e-09 -4.18433e-11 -1.17255e-09 2.08543e-10 -4.18433e-11 -6.13353e-11 -4.18433e-11 -6.13353e-11 2.24343e-10 -3.86037e-11 1.50182e-09 -4.18433e-11 -7.60441e-10 2.24343e-10 -7.60441e-10 2.24343e-10 -1.73027e-10 -2.18627e-11 2.24343e-10 -3.86037e-11 -2.18627e-11 1.67427e-11 -2.18627e-11 1.67427e-11 -2.68855e-11 2.21039e-12 -1.73027e-10 -2.18627e-11 1.30463e-10 -2.68855e-11 9.40323e-09 6.79387e-10 -5.64034e-09 1.48358e-09 6.79387e-10 -7.60441e-10 1.48358e-09 -1.73027e-10 1.48358e-09 -1.73027e-10 -3.10297e-10 1.30463e-10 -5.64034e-09 1.48358e-09 -4.9458e-10 -3.10297e-10 0.126612 0.0261353 0.143076 0.0384853 0.0261353 -0.000674237 0.0384853 0.00201687 0.0384853 0.00201687 0.0386317 0.00335124 0.143076 0.0384853 0.135653 0.0386317 -0.000674237 -0.000680522 0.00201687 -0.000971102 -0.000680522 0.000107771 -0.000971102 2.9713e-05 -0.000971102 2.9713e-05 -0.000769807 -3.67797e-05 0.00201687 -0.000971102 0.00335124 -0.000769807 0.00335124 -0.000769807 0.00223507 -0.000546958 -0.000769807 -3.67797e-05 -0.000546958 4.36761e-07 -0.000546958 4.36761e-07 -0.000420715 2.85056e-05 0.00223507 -0.000546958 0.0010306 -0.000420715 0.135653 0.0386317 0.11966 0.0319827 0.0386317 0.00335124 0.0319827 0.00223507 0.0319827 0.00223507 0.0224079 0.0010306 0.11966 0.0319827 0.088797 0.0224079 0.000107771 5.97307e-06 2.9713e-05 2.92308e-05 5.97307e-06 -5.6413e-06 2.92308e-05 -6.98498e-06 2.92308e-05 -6.98498e-06 2.79782e-05 -3.64671e-06 2.9713e-05 2.92308e-05 -3.67797e-05 2.79782e-05 -5.6413e-06 1.18271e-06 -6.98498e-06 4.88343e-07 1.18271e-06 -8.6485e-08 4.88343e-07 1.57409e-07 4.88343e-07 1.57409e-07 -1.94575e-07 1.69885e-07 -6.98498e-06 4.88343e-07 -3.64671e-06 -1.94575e-07 -3.64671e-06 -1.94575e-07 -2.16895e-06 2.39122e-07 -1.94575e-07 1.69885e-07 2.39122e-07 -1.96532e-08 2.39122e-07 -1.96532e-08 4.57009e-07 -3.95088e-08 -2.16895e-06 2.39122e-07 -2.43527e-06 4.57009e-07 -3.67797e-05 2.79782e-05 4.36761e-07 1.17617e-05 2.79782e-05 -3.64671e-06 1.17617e-05 -2.16895e-06 1.17617e-05 -2.16895e-06 6.15041e-06 -2.43527e-06 4.36761e-07 1.17617e-05 2.85056e-05 6.15041e-06 2.85056e-05 6.15041e-06 8.88525e-06 3.72217e-06 6.15041e-06 -2.43527e-06 3.72217e-06 -9.5864e-07 3.72217e-06 -9.5864e-07 2.24225e-07 1.4614e-07 8.88525e-06 3.72217e-06 -5.82443e-07 2.24225e-07 -2.43527e-06 4.57009e-07 -9.5864e-07 6.83404e-08 4.57009e-07 -3.95088e-08 6.83404e-08 2.19415e-08 6.83404e-08 2.19415e-08 -6.18118e-08 9.40323e-09 -9.5864e-07 6.83404e-08 1.4614e-07 -6.18