<?xml version="1.0" encoding="UTF-8"?>
<VTKFile type="UnstructuredGrid" version="0.1" byte_order="LittleEndian" compressor="vtkZLibDataCompressor">
    <UnstructuredGrid>
        <Piece NumberOfPoints="4096" NumberOfCells="1024">
            <Points>
                <DataArray type="Float64" Name="Array" NumberOfComponents="3" format="ascii" RangeMin="0" RangeMax="1">0 0 0 0.03125 0 0 0 0.03125 0 0.03125 0.03125 0 0.03125 0 0 0.0625 0 0 0.03125 0.03125 0 0.0625 0.03125 0 0.03125 0.03125 0 0.0625 0.03125 0 0.03125 0.0625 0 0.0625 0.0625 0 0 0.03125 0 0.03125 0.03125 0 0 0.0625 0 0.03125 0.0625 0 0.0625 0 0 0.09375 0 0 0.0625 0.03125 0 0.09375 0.03125 0 0.09375 0 0 0.125 0 0 0.09375 0.03125 0 0.125 0.03125 0 0.09375 0.03125 0 0.125 0.03125 0 0.09375 0.0625 0 0.125 0.0625 0 0.0625 0.03125 0 0.09375 0.03125 0 0.0625 0.0625 0 0.09375 0.0625 0 0.0625 0.0625 0 0.09375 0.0625 0 0.0625 0.09375 0 0.09375 0.09375 0 0.09375 0.0625 0 0.125 0.0625 0 0.09375 0.09375 0 0.125 0.09375 0 0.09375 0.09375 0 0.125 0.09375 0 0.09375 0.125 0 0.125 0.125 0 0.0625 0.09375 0 0.09375 0.09375 0 0.0625 0.125 0 0.09375 0.125 0 0 0.0625 0 0.03125 0.0625 0 0 0.09375 0 0.03125 0.09375 0 0.03125 0.0625 0 0.0625 0.0625 0 0.03125 0.09375 0 0.0625 0.09375 0 0.03125 0.09375 0 0.0625 0.09375 0 0.03125 0.125 0 0.0625 0.125 0 0 0.09375 0 0.03125 0.09375 0 0 0.125 0 0.03125 0.125 0 0.125 0 0 0.15625 0 0 0.125 0.03125 0 0.15625 0.03125 0 0.15625 0 0 0.1875 0 0 0.15625 0.03125 0 0.1875 0.03125 0 0.15625 0.03125 0 0.1875 0.03125 0 0.15625 0.0625 0 0.1875 0.0625 0 0.125 0.03125 0 0.15625 0.03125 0 0.125 0.0625 0 0.15625 0.0625 0 0.1875 0 0 0.21875 0 0 0.1875 0.03125 0 0.21875 0.03125 0 0.21875 0 0 0.25 0 0 0.21875 0.03125 0 0.25 0.03125 0 0.21875 0.03125 0 0.25 0.03125 0 0.21875 0.0625 0 0.25 0.0625 0 0.1875 0.03125 0 0.21875 0.03125 0 0.1875 0.0625 0 0.21875 0.0625 0 0.1875 0.0625 0 0.21875 0.0625 0 0.1875 0.09375 0 0.21875 0.09375 0 0.21875 0.0625 0 0.25 0.0625 0 0.21875 0.09375 0 0.25 0.09375 0 0.21875 0.09375 0 0.25 0.09375 0 0.21875 0.125 0 0.25 0.125 0 0.1875 0.09375 0 0.21875 0.09375 0 0.1875 0.125 0 0.21875 0.125 0 0.125 0.0625 0 0.15625 0.0625 0 0.125 0.09375 0 0.15625 0.09375 0 0.15625 0.0625 0 0.1875 0.0625 0 0.15625 0.09375 0 0.1875 0.09375 0 0.15625 0.09375 0 0.1875 0.09375 0 0.15625 0.125 0 0.1875 0.125 0 0.125 0.09375 0 0.15625 0.09375 0 0.125 0.125 0 0.15625 0.125 0 0.125 0.125 0 0.15625 0.125 0 0.125 0.15625 0 0.15625 0.15625 0 0.15625 0.125 0 0.1875 0.125 0 0.15625 0.15625 0 0.1875 0.15625 0 0.15625 0.15625 0 0.1875 0.15625 0 0.15625 0.1875 0 0.1875 0.1875 0 0.125 0.15625 0 0.15625 0.15625 0 0.125 0.1875 0 0.15625 0.1875 0 0.1875 0.125 0 0.21875 0.125 0 0.1875 0.15625 0 0.21875 0.15625 0 0.21875 0.125 0 0.25 0.125 0 0.21875 0.15625 0 0.25 0.15625 0 0.21875 0.15625 0 0.25 0.15625 0 0.21875 0.1875 0 0.25 0.1875 0 0.1875 0.15625 0 0.21875 0.15625 0 0.1875 0.1875 0 0.21875 0.1875 0 0.1875 0.1875 0 0.21875 0.1875 0 0.1875 0.21875 0 0.21875 0.21875 0 0.21875 0.1875 0 0.25 0.1875 0 0.21875 0.21875 0 0.25 0.21875 0 0.21875 0.21875 0 0.25 0.21875 0 0.21875 0.25 0 0.25 0.25 0 0.1875 0.21875 0 0.21875 0.21875 0 0.1875 0.25 0 0.21875 0.25 0 0.125 0.1875 0 0.15625 0.1875 0 0.125 0.21875 0 0.15625 0.21875 0 0.15625 0.1875 0 0.1875 0.1875 0 0.15625 0.21875 0 0.1875 0.21875 0 0.15625 0.21875 0 0.1875 0.21875 0 0.15625 0.25 0 0.1875 0.25 0 0.125 0.21875 0 0.15625 0.21875 0 0.125 0.25 0 0.15625 0.25 0 0 0.125 0 0.03125 0.125 0 0 0.15625 0 0.03125 0.15625 0 0.03125 0.125 0 0.0625 0.125 0 0.03125 0.15625 0 0.0625 0.15625 0 0.03125 0.15625 0 0.0625 0.15625 0 0.03125 0.1875 0 0.0625 0.1875 0 0 0.15625 0 0.03125 0.15625 0 0 0.1875 0 0.03125 0.1875 0 0.0625 0.125 0 0.09375 0.125 0 0.0625 0.15625 0 0.09375 0.15625 0 0.09375 0.125 0 0.125 0.125 0 0.09375 0.15625 0 0.125 0.15625 0 0.09375 0.15625 0 0.125 0.15625 0 0.09375 0.1875 0 0.125 0.1875 0 0.0625 0.15625 0 0.09375 0.15625 0 0.0625 0.1875 0 0.09375 0.1875 0 0.0625 0.1875 0 0.09375 0.1875 0 0.0625 0.21875 0 0.09375 0.21875 0 0.09375 0.1875 0 0.125 0.1875 0 0.09375 0.21875 0 0.125 0.21875 0 0.09375 0.21875 0 0.125 0.21875 0 0.09375 0.25 0 0.125 0.25 0 0.0625 0.21875 0 0.09375 0.21875 0 0.0625 0.25 0 0.09375 0.25 0 0 0.1875 0 0.03125 0.1875 0 0 0.21875 0 0.03125 0.21875 0 0.03125 0.1875 0 0.0625 0.1875 0 0.03125 0.21875 0 0.0625 0.21875 0 0.03125 0.21875 0 0.0625 0.21875 0 0.03125 0.25 0 0.0625 0.25 0 0 0.21875 0 0.03125 0.21875 0 0 0.25 0 0.03125 0.25 0 0.25 0 0 0.28125 0 0 0.25 0.03125 0 0.28125 0.03125 0 0.28125 0 0 0.3125 0 0 0.28125 0.03125 0 0.3125 0.03125 0 0.28125 0.03125 0 0.3125 0.03125 0 0.28125 0.0625 0 0.3125 0.0625 0 0.25 0.03125 0 0.28125 0.03125 0 0.25 0.0625 0 0.28125 0.0625 0 0.3125 0 0 0.34375 0 0 0.3125 0.03125 0 0.34375 0.03125 0 0.34375 0 0 0.375 0 0 0.34375 0.03125 0 0.375 0.03125 0 0.34375 0.03125 0 0.375 0.03125 0 0.34375 0.0625 0 0.375 0.0625 0 0.3125 0.03125 0 0.34375 0.03125 0 0.3125 0.0625 0 0.34375 0.0625 0 0.3125 0.0625 0 0.34375 0.0625 0 0.3125 0.09375 0 0.34375 0.09375 0 0.34375 0.0625 0 0.375 0.0625 0 0.34375 0.09375 0 0.375 0.09375 0 0.34375 0.09375 0 0.375 0.09375 0 0.34375 0.125 0 0.375 0.125 0 0.3125 0.09375 0 0.34375 0.09375 0 0.3125 0.125 0 0.34375 0.125 0 0.25 0.0625 0 0.28125 0.0625 0 0.25 0.09375 0 0.28125 0.09375 0 0.28125 0.0625 0 0.3125 0.0625 0 0.28125 0.09375 0 0.3125 0.09375 0 0.28125 0.09375 0 0.3125 0.09375 0 0.28125 0.125 0 0.3125 0.125 0 0.25 0.09375 0 0.28125 0.09375 0 0.25 0.125 0 0.28125 0.125 0 0.375 0 0 0.40625 0 0 0.375 0.03125 0 0.40625 0.03125 0 0.40625 0 0 0.4375 0 0 0.40625 0.03125 0 0.4375 0.03125 0 0.40625 0.03125 0 0.4375 0.03125 0 0.40625 0.0625 0 0.4375 0.0625 0 0.375 0.03125 0 0.40625 0.03125 0 0.375 0.0625 0 0.40625 0.0625 0 0.4375 0 0 0.46875 0 0 0.4375 0.03125 0 0.46875 0.03125 0 0.46875 0 0 0.5 0 0 0.46875 0.03125 0 0.5 0.03125 0 0.46875 0.03125 0 0.5 0.03125 0 0.46875 0.0625 0 0.5 0.0625 0 0.4375 0.03125 0 0.46875 0.03125 0 0.4375 0.0625 0 0.46875 0.0625 0 0.4375 0.0625 0 0.46875 0.0625 0 0.4375 0.09375 0 0.46875 0.09375 0 0.46875 0.0625 0 0.5 0.0625 0 0.46875 0.09375 0 0.5 0.09375 0 0.46875 0.09375 0 0.5 0.09375 0 0.46875 0.125 0 0.5 0.125 0 0.4375 0.09375 0 0.46875 0.09375 0 0.4375 0.125 0 0.46875 0.125 0 0.375 0.0625 0 0.40625 0.0625 0 0.375 0.09375 0 0.40625 0.09375 0 0.40625 0.0625 0 0.4375 0.0625 0 0.40625 0.09375 0 0.4375 0.09375 0 0.40625 0.09375 0 0.4375 0.09375 0 0.40625 0.125 0 0.4375 0.125 0 0.375 0.09375 0 0.40625 0.09375 0 0.375 0.125 0 0.40625 0.125 0 0.375 0.125 0 0.40625 0.125 0 0.375 0.15625 0 0.40625 0.15625 0 0.40625 0.125 0 0.4375 0.125 0 0.40625 0.15625 0 0.4375 0.15625 0 0.40625 0.15625 0 0.4375 0.15625 0 0.40625 0.1875 0 0.4375 0.1875 0 0.375 0.15625 0 0.40625 0.15625 0 0.375 0.1875 0 0.40625 0.1875 0 0.4375 0.125 0 0.46875 0.125 0 0.4375 0.15625 0 0.46875 0.15625 0 0.46875 0.125 0 0.5 0.125 0 0.46875 0.15625 0 0.5 0.15625 0 0.46875 0.15625 0 0.5 0.15625 0 0.46875 0.1875 0 0.5 0.1875 0 0.4375 0.15625 0 0.46875 0.15625 0 0.4375 0.1875 0 0.46875 0.1875 0 0.4375 0.1875 0 0.46875 0.1875 0 0.4375 0.21875 0 0.46875 0.21875 0 0.46875 0.1875 0 0.5 0.1875 0 0.46875 0.21875 0 0.5 0.21875 0 0.46875 0.21875 0 0.5 0.21875 0 0.46875 0.25 0 0.5 0.25 0 0.4375 0.21875 0 0.46875 0.21875 0 0.4375 0.25 0 0.46875 0.25 0 0.375 0.1875 0 0.40625 0.1875 0 0.375 0.21875 0 0.40625 0.21875 0 0.40625 0.1875 0 0.4375 0.1875 0 0.40625 0.21875 0 0.4375 0.21875 0 0.40625 0.21875 0 0.4375 0.21875 0 0.40625 0.25 0 0.4375 0.25 0 0.375 0.21875 0 0.40625 0.21875 0 0.375 0.25 0 0.40625 0.25 0 0.25 0.125 0 0.28125 0.125 0 0.25 0.15625 0 0.28125 0.15625 0 0.28125 0.125 0 0.3125 0.125 0 0.28125 0.15625 0 0.3125 0.15625 0 0.28125 0.15625 0 0.3125 0.15625 0 0.28125 0.1875 0 0.3125 0.1875 0 0.25 0.15625 0 0.28125 0.15625 0 0.25 0.1875 0 0.28125 0.1875 0 0.3125 0.125 0 0.34375 0.125 0 0.3125 0.15625 0 0.34375 0.15625 0 0.34375 0.125 0 0.375 0.125 0 0.34375 0.15625 0 0.375 0.15625 0 0.34375 0.15625 0 0.375 0.15625 0 0.34375 0.1875 0 0.375 0.1875 0 0.3125 0.15625 0 0.34375 0.15625 0 0.3125 0.1875 0 0.34375 0.1875 0 0.3125 0.1875 0 0.34375 0.1875 0 0.3125 0.21875 0 0.34375 0.21875 0 0.34375 0.1875 0 0.375 0.1875 0 0.34375 0.21875 0 0.375 0.21875 0 0.34375 0.21875 0 0.375 0.21875 0 0.34375 0.25 0 0.375 0.25 0 0.3125 0.21875 0 0.34375 0.21875 0 0.3125 0.25 0 0.34375 0.25 0 0.25 0.1875 0 0.28125 0.1875 0 0.25 0.21875 0 0.28125 0.21875 0 0.28125 0.1875 0 0.3125 0.1875 0 0.28125 0.21875 0 0.3125 0.21875 0 0.28125 0.21875 0 0.3125 0.21875 0 0.28125 0.25 0 0.3125 0.25 0 0.25 0.21875 0 0.28125 0.21875 0 0.25 0.25 0 0.28125 0.25 0 0.25 0.25 0 0.28125 0.25 0 0.25 0.28125 0 0.28125 0.28125 0 0.28125 0.25 0 0.3125 0.25 0 0.28125 0.28125 0 0.3125 0.28125 0 0.28125 0.28125 0 0.3125 0.28125 0 0.28125 0.3125 0 0.3125 0.3125 0 0.25 0.28125 0 0.28125 0.28125 0 0.25 0.3125 0 0.28125 0.3125 0 0.3125 0.25 0 0.34375 0.25 0 0.3125 0.28125 0 0.34375 0.28125 0 0.34375 0.25 0 0.375 0.25 0 0.34375 0.28125 0 0.375 0.28125 0 0.34375 0.28125 0 0.375 0.28125 0 0.34375 0.3125 0 0.375 0.3125 0 0.3125 0.28125 0 0.34375 0.28125 0 0.3125 0.3125 0 0.34375 0.3125 0 0.3125 0.3125 0 0.34375 0.3125 0 0.3125 0.34375 0 0.34375 0.34375 0 0.34375 0.3125 0 0.375 0.3125 0 0.34375 0.34375 0 0.375 0.34375 0 0.34375 0.34375 0 0.375 0.34375 0 0.34375 0.375 0 0.375 0.375 0 0.3125 0.34375 0 0.34375 0.34375 0 0.3125 0.375 0 0.34375 0.375 0 0.25 0.3125 0 0.28125 0.3125 0 0.25 0.34375 0 0.28125 0.34375 0 0.28125 0.3125 0 0.3125 0.3125 0 0.28125 0.34375 0 0.3125 0.34375 0 0.28125 0.34375 0 0.3125 0.34375 0 0.28125 0.375 0 0.3125 0.375 0 0.25 0.34375 0 0.28125 0.34375 0 0.25 0.375 0 0.28125 0.375 0 0.375 0.25 0 0.40625 0.25 0 0.375 0.28125 0 0.40625 0.28125 0 0.40625 0.25 0 0.4375 0.25 0 0.40625 0.28125 0 0.4375 0.28125 0 0.40625 0.28125 0 0.4375 0.28125 0 0.40625 0.3125 0 0.4375 0.3125 0 0.375 0.28125 0 0.40625 0.28125 0 0.375 0.3125 0 0.40625 0.3125 0 0.4375 0.25 0 0.46875 0.25 0 0.4375 0.28125 0 0.46875 0.28125 0 0.46875 0.25 0 0.5 0.25 0 0.46875 0.28125 0 0.5 0.28125 0 0.46875 0.28125 0 0.5 0.28125 0 0.46875 0.3125 0
[...]
            <PointData>
                <DataArray Name="u" type="Float64" format="ascii">0 0 0 0.000146179 0 0 0.000146179 3.67367e-05 0.000146179 3.67367e-05 3.67367e-05 -0.000445429 0 0.000146179 0 3.67367e-05 0 0 3.67367e-05 -0.000461 0 0 -0.000461 -0.000460696 -0.000461 -0.000460696 0.000575678 -0.00097004 3.67367e-05 -0.000461 -0.000445429 0.000575678 -0.000445429 0.000575678 0.000575678 0.000633661 0.000575678 -0.00097004 0.000633661 0.00150752 0.000633661 0.00150752 0.00150752 0.0007993 0.000575678 0.000633661 -0.00097004 0.00150752 0 3.67367e-05 0 -0.000461 3.67367e-05 -0.000445429 -0.000461 0.000575678 -0.000461 0.000575678 -0.000460696 -0.00097004 0 -0.000461 0 -0.000460696 0 0 -0.000460696 0.00106768 0 0 0.00106768 0.00111867 0.00106768 0.00111867 -0.00250677 0.0014812 -0.000460696 0.00106768 -0.00097004 -0.00250677 0 0 0.00111867 -0.00164937 0 0 -0.00164937 -0.000698041 -0.00164937 -0.000698041 0.00157613 -0.00347353 0.00111867 -0.00164937 0.0014812 0.00157613 0.0014812 0.00157613 -0.00416385 0.00259302 0.00157613 -0.00347353 0.00259302 0.00443678 0.00259302 0.00443678 -0.00241708 0.00229099 -0.00416385 0.00259302 0.000846063 -0.00241708 -0.00097004 -0.00250677 0.00150752 -0.000705375 -0.00250677 0.0014812 -0.000705375 -0.00416385 -0.000705375 -0.00416385 0.00204293 0.000846063 0.00150752 -0.000705375 0.0007993 0.00204293 0.0007993 0.00204293 0.00204293 0.000351407 0.00204293 0.000846063 0.000351407 0.00247958 0.000351407 0.00247958 0.00247958 -0.00210042 0.00204293 0.000351407 0.000846063 0.00247958 0.000846063 -0.00241708 0.00247958 -0.000227065 -0.00241708 0.00229099 -0.000227065 -0.00140257 -0.000227065 -0.00140257 0.000164465 0.00181041 0.00247958 -0.000227065 -0.00210042 0.000164465 -0.00210042 0.000164465 0.000164465 0.000477675 0.000164465 0.00181041 0.000477675 0.000552808 0.000477675 0.000552808 0.000552808 0.0017407 0.000164465 0.000477675 0.00181041 0.000552808 0.000846063 0.00247958 -0.00241708 -0.000227065 0.00247958 -0.00210042 -0.000227065 0.000164465 -0.000227065 0.000164465 -0.00140257 0.00181041 -0.00241708 -0.000227065 0.00229099 -0.00140257 0 -0.000460696 0 0.00106768 -0.000460696 -0.00097004 0.00106768 -0.00250677 0.00106768 -0.00250677 0.00111867 0.0014812 0 0.00106768 0 0.00111867 -0.00097004 0.00150752 -0.00250677 -0.000705375 0.00150752 0.0007993 -0.000705375 0.00204293 -0.000705375 0.00204293 -0.00416385 0.000846063 -0.00250677 -0.000705375 0.0014812 -0.00416385 0.0014812 -0.00416385 0.00157613 0.00259302 -0.00416385 0.000846063 0.00259302 -0.00241708 0.00259302 -0.00241708 0.00443678 0.00229099 0.00157613 0.00259302 -0.00347353 0.00443678 0 0.00111867 0 -0.00164937 0.00111867 0.0014812 -0.00164937 0.00157613 -0.00164937 0.00157613 -0.000698041 -0.00347353 0 -0.00164937 0 -0.000698041 0 0 -0.000698041 0.00219993 0 0 0.00219993 0.000638703 0.00219993 0.000638703 -0.00268777 0.00220557 -0.000698041 0.00219993 -0.00347353 -0.00268777 0 0 0.000638703 -0.00129245 0 0 -0.00129245 0.000329365 -0.00129245 0.000329365 0.00148294 -0.00356263 0.000638703 -0.00129245 0.00220557 0.00148294 0.00220557 0.00148294 -0.00329029 0.00145104 0.00148294 -0.00356263 0.00145104 0.00156149 0.00145104 0.00156149 0.000544549 0.000588936 -0.00329029 0.00145104 -5.38322e-05 0.000544549 -0.00347353 -0.00268777 0.00443678 -0.00330987 -0.00268777 0.00220557 -0.00330987 -0.00329029 -0.00330987 -0.00329029 0.00350546 -5.38322e-05 0.00443678 -0.00330987 0.00229099 0.00350546 0 0 0.000329365 0.00222281 0 0 0.00222281 0.00101159 0.00222281 0.00101159 -0.002599 0.00430449 0.000329365 0.00222281 -0.00356263 -0.002599 0 0 0.00101159 -0.00217921 0 0 -0.00217921 -0.00354281 -0.00217921 -0.00354281 0.00576385 0.00146067 0.00101159 -0.00217921 0.00430449 0.00576385 0.00430449 0.00576385 -0.00456368 0.000635037 0.00576385 0.00146067 0.000635037 0.00646723 0.000635037 0.00646723 -0.00282275 -0.00121936 -0.00456368 0.000635037 -0.000106919 -0.00282275 -0.00356263 -0.002599 0.00156149 -0.00231355 -0.002599 0.00430449 -0.00231355 -0.00456368 -0.00231355 -0.00456368 0.000302609 -0.000106919 0.00156149 -0.00231355 0.000588936 0.000302609 0.000588936 0.000302609 0.00100048 -0.00444231 0.000302609 -0.000106919 -0.00444231 -0.00226864 -0.00444231 -0.00226864 0.00496761 -0.00450082 0.00100048 -0.00444231 0.00392112 0.00496761 -0.000106919 -0.00282275 -0.00226864 0.00249446 -0.00282275 -0.00121936 0.00249446 0.00110801 0.00249446 0.00110801 -0.00312917 0.00109099 -0.00226864 0.00249446 -0.00450082 -0.00312917 -0.00450082 -0.00312917 0.00585374 -0.000735148 -0.00312917 0.00109099 -0.000735148 0.000948182 -0.000735148 0.000948182 -0.00179207 -0.00399743 0.00585374 -0.000735148 -0.0025202 -0.00179207 0.00392112 0.00496761 -0.0031121 0.00361702 0.00496761 -0.00450082 0.00361702 0.00585374 0.00361702 0.00585374 -0.00815107 -0.0025202 -0.0031121 0.00361702 0.000773457 -0.00815107 0.00229099 0.00350546 -0.00140257 0.00236731 0.00350546 -5.38322e-05 0.00236731 0.00115701 0.00236731 0.00115701 0.00260108 -0.000914999 -0.00140257 0.00236731 0.00181041 0.00260108 -5.38322e-05 0.000544549 0.00115701 0.00163491 0.000544549 0.000588936 0.00163491 0.00100048 0.00163491 0.00100048 -0.00424614 0.00392112 0.00115701 0.00163491 -0.000914999 -0.00424614 -0.000914999 -0.00424614 0.00274259 0.00183334 -0.00424614 0.00392112 0.00183334 -0.0031121 0.00183334 -0.0031121 0.0075538 0.000773457 0.00274259 0.00183334 -0.000352454 0.0075538 0.00181041 0.00260108 0.000552808 -0.00177923 0.00260108 -0.000914999 -0.00177923 0.00274259 -0.00177923 0.00274259 -0.000673139 -0.000352454 0.000552808 -0.00177923 0.0017407 -0.000673139 0.0017407 -0.000673139 -0.000673139 0.00841477 -0.000673139 -0.000352454 0.00841477 0.00111246 0.00841477 0.00111246 0.00111246 0.00308086 -0.000673139 0.00841477 -0.000352454 0.00111246 -0.000352454 0.0075538 0.00111246 -0.00392588 0.0075538 0.000773457 -0.00392588 0.00112253 -0.00392588 0.00112253 -0.00623951 -0.00530635 0.00111246 -0.00392588 0.00308086 -0.00623951 0.00308086 -0.00623951 -0.00623951 -0.000139125 -0.00623951 -0.00530635 -0.000139125 0.0082262 -0.000139125 0.0082262 0.0082262 0.03515 -0.00623951 -0.000139125 -0.00530635 0.0082262 -0.000352454 0.00111246 0.0075538 -0.00392588 0.00111246 0.00308086 -0.00392588 -0.00623951 -0.00392588 -0.00623951 0.00112253 -0.00530635 0.0075538 -0.00392588 0.000773457 0.00112253 0.000773457 -0.00815107 0.00112253 -0.00480398 -0.00815107 -0.0025202 -0.00480398 -0.00648181 -0.00480398 -0.00648181 0.00293928 0.00950471 0.00112253 -0.00480398 -0.00530635 0.00293928 -0.0025202 -0.00179207 -0.00648181 6.92538e-05 -0.00179207 -0.00399743 6.92538e-05 -0.00306085 6.92538e-05 -0.00306085 0.0280322 0.0443292 -0.00648181 6.92538e-05 0.00950471 0.0280322 0.00950471 0.0280322 0.0532699 0.0855261 0.0280322 0.0443292 0.0855261 0.128889 0.0855261 0.128889 0.195926 0.246124 0.0532699 0.0855261 0.143088 0.195926 -0.00530635 0.00293928 0.0082262 0.0290916 0.00293928 0.00950471 0.0290916 0.0532699 0.0290916 0.0532699 0.0804508 0.143088 0.0082262 0.0290916 0.03515 0.0804508 0.03515 0.0804508 0.0804508 0.148742 0.0804508 0.143088 0.148742 0.243245 0.148742 0.243245 0.243245 0.343999 0.0804508 0.148742 0.143088 0.243245 0.143088 0.195926 0.243245 0.334412 0.195926 0.246124 0.334412 0.395476 0.334412 0.395476 0.45494 0.535838 0.243245 0.334412 0.343999 0.45494 0.343999 0.45494 0.45494 0.565588 0.45494 0.535838 0.565588 0.654664 0.565588 0.654664 0.654664 0.751277 0.45494 0.565588 0.535838 0.654664 0.143088 0.243245 0.195926 0.334412 0.243245 0.343999 0.334412 0.45494 0.334412 0.45494 0.395476 0.535838 0.195926 0.334412 0.246124 0.395476 0.000773457 0.00112253 -0.00815107 -0.00480398 0.00112253 -0.00530635 -0.00480398 0.00293928 -0.00480398 0.00293928 -0.00648181 0.00950471 -0.00815107 -0.00480398 -0.0025202 -0.00648181 -0.00530635 0.0082262 0.00293928 0.0290916 0.0082262 0.03515 0.0290916 0.0804508 0.0290916 0.0804508 0.0532699 0.143088 0.00293928 0.0290916 0.00950471 0.0532699 0.00950471 0.0532699 0.0280322 0.0855261 0.0532699 0.143088 0.0855261 0.195926 0.0855261 0.195926 0.128889 0.246124 0.0280322 0.0855261 0.0443292 0.128889 -0.0025202 -0.00648181 -0.00179207 6.92538e-05 -0.00648181 0.00950471 6.92538e-05 0.0280322 6.92538e-05 0.0280322 -0.00306085 0.0443292 -0.00179207 6.92538e-05 -0.00399743 -0.00306085 0 -0.000698041 0 0.00219993 -0.000698041 -0.00347353 0.00219993 -0.00268777 0.00219993 -0.00268777 0.000638703 0.00220557 0 0.00219993 0 0.000638703 -0.00347353 0.00443678 -0.00268777 -0.00330987 0.00443678 0.00229099 -0.00330987 0.00350546 -0.00330987 0.00350546 -0.00329029 -5.38322e-05 -0.00268777 -0.00330987 0.00220557 -0.00329029 0.00220557 -0.00329029 0.00148294 0.00145104 -0.00329029 -5.38322e-05 0.00145104 0.000544549 0.00145104 0.000544549 0.00156149 0.000588936 0.00148294 0.00145104 -0.00356263 0.00156149 0 0.000638703 0 -0.00129245 0.000638703 0.00220557 -0.00129245 0.00148294 -0.00129245 0.00148294 0.000329365 -0.00356263 0 -0.00129245 0 0.000329365 0.00229099 -0.00140257 0.00350546 0.00236731 -0.00140257 0.00181041 0.00236731 0.00260108 0.00236731 0.00260108 0.00115701 -0.000914999 0.00350546 0.00236731 -5.38322e-05 0.00115701 0.00181041 0.000552808 0.00260108 -0.00177923 0.000552808 0.0017407 -0.00177923 -0.000673139 -0.00177923 -0.000673139 0.00274259 -0.000352454 0.00260108 -0.00177923 -0.000914999 0.00274259 -0.000914999 0.00274259 -0.00424614 0.00183334 0.00274259 -0.000352454 0.00183334 0.0075538 0.00183334 0.0075538 -0.0031121 0.000773457 -0.00424614 0.00183334 0.00392112 -0.0031121 -5.38322e-05 0.00115701 0.000544549 0.00163491 0.00115701 -0.000914999 0.00163491 -0.00424614 0.00163491 -0.00424614 0.00100048 0.00392112 0.000544549 0.00163491 0.000588936 0.00100048 0.000588936 0.00100048 0.000302609 -0.00444231 0.00100048 0.00392112 -0.00444231 0.00496761 -0.00444231 0.00496761 -0.00226864 -0.00450082 0.000302609 -0.00444231 -0.000106919 -0.00226864 0.00392112 -0.0031121 0.00496761 0.00361702 -0.0031121 0.000773457 0.00361702 -0.00815107 0.00361702 -0.00815107 0.00585374 -0.0025202 0.00496761 0.00361702 -0.00450082 0.00585374 -0.00450082 0.00585374 -0.00312917 -0.000735148 0.00585374 -0.0025202 -0.000735148 -0.00179207 -0.000735148 -0.00179207 0.000948182 -0.00399743 -0.00312917 -0.000735148 0.00109099 0.000948182 -0.000106919 -0.00226864 -0.00282275 0.00249446 -0.00226864 -0.00450082 0.00249446 -0.00312917 0.00249446 -0.00312917 0.00110801 0.00109099 -0.00282275 0.00249446 -0.00121936 0.00110801 0 0.000329365 0 0.00222281 0.000329365 -0.00356263 0.00222281 -0.002599 0.00222281 -0.002599 0.00101159 0.00430449 0 0.00222281 0 0.00101159 -0.00356263 0.00156149 -0.002599 -0.00231355 0.00156149 0.000588936 -0.00231355 0.000302609 -0.00231355 0.000302609 -0.00456368 -0.000106919 -0.002599 -0.00231355 0.00430449 -0.00456368 0.00430449 -0.00456368 0.00576385 0.000635037 -0.00456368 -0.000106919 0.000635037 -0.00282275 0.000635037 -0.00282275 0.00646723 -0.00121936 0.00576385 0.000635037 0.00146067 0.00646723 0 0.00101159 0 -0.00217921 0.00101159 0.00430449 -0.00217921 0.00576385 -0.00217921 0.00576385 -0.00354281 0.00146067 0 -0.00217921 0 -0.00354281 0 0 -0.00354281 -0.00283129 0 0 -0.00283129 -0.00238337 -0.00283129 -0.00238337 0.000142026 8.86328e-05 -0.00354281 -0.00283129 0.00146067 0.000142026 0 0 -0.00238337 -0.00154135 0 0 -0.00154135 0.000352152 -0.00154135 0.000352152 -0.003135 -0.00451298 -0.00238337 -0.00154135 8.86328e-05 -0.003135 8.86328e-05 -0.003135 0.00529664 0.00653575 -0.003135 -0.00451298 0.00653575 0.00290297 0.00653575 0.00290297 0.00273759 0.00500918 0.00529664 0.00653575 0.00313142 0.00273759 0.00146067 0.000142026 0.00646723 0.0057949 0.000142026 8.86328e-05 0.0057949 0.00529664 0.0057949 0.00529664 0.00325924 0.00313142 0.00646723 0.0057949 -0.00121936 0.00325924 0 0 0.000352152 0.00111245 0 0 0.00111245 0.000148592 0.00111245 0.000148592 -0.00104026 0.00190581 0.000352152 0.00111245 -0.00451298 -0.00104026 0 0 0.000148592 -0.000529774 0 0 -0.000529774 -0.000171975 -0.000529774 -0.000171975 0.00117704 -0.000358018 0.000148592 -0.000529774 0.00190581 0.00117704 0.00190581 0.00117704 -0.00263109 0.000224864 0.00117704 -0.000358018 0.000224864 0.000940355 0.000224864 0.000940355 -0.0022771 -0.000463113 -0.00263109 0.000224864 -0.000748343 -0.0022771 -0.00451298 -0.00104026 0.00290297 -0.00250918 -0.00104026 0.00190581 -0.00250918 -0.00263109 -0.00250918 -0.00263109 0.00379147 -0.000748343 0.00290297 -0.00250918 0.00500918 0.00379147 0.00500918 0.00379147 -0.00307712 0.000114294 0.00379147 -0.000748343 0.000114294 0.00319159 0.000114294 0.00319159 -0.0070789 -0.00523802 -0.00307712 0.000114294 0.00160263 -0.0070789 -0.000748343 -0.0022771 0.00319159 0.00153231 -0.0022771 -0.000463113 0.00153231 -0.000605684 0.00153231 -0.000605684 0.000867354 0.00231688 0.00319159 0.00153231 -0.00523802 0.000867354 -0.00523802 0.000867354 -0.00389247 -0.00514887 0.000867354 0.00231688 -0.00514887 -0.00062785 -0.00514887 -0.00062785 0.000543941 -0.00318636 -0.00389247 -0.00514887 0.00990311 0.000543941 0.00160263 -0.0070789 0.0096661 0.00538014 -0.0070789 -0.00523802 0.00538014 -0.00389247 0.00538014 -0.00389247 0.0110714 0.00990311 0.0096661 0.00538014 -0.0010443 0.0110714 -0.00121936 0.00325924 0.00110801 0.00250471 0.00325924 0.00313142 0.00250471 0.00525072 0.00250471 0.00525072 -0.00148371 0.00225785 0.00110801 0.00250471 0.00109099 -0.00148371 0.00313142 0.00273759 0.00525072 0.000870073 0.00273759 0.00500918 0.000870073 -0.00307712 0.000870073 -0.00307712 0.00795011 0.00160263 0.00525072 0.000870073 0.00225785 0.00795011 0.00225785 0.00795011 -0.000893546 0.0026627 0.00795011 0.00160263 0.0026627 0.0096661 0.0026627 0.0096661 -0.00742958 -0.0010443 -0.000893546 0.0026627 5.36978e-05 -0.00742958 0.00109099 -0.00148371 0.000948182 0.0030285 -0.00148371 0.00225785 0.0030285 -0.000893546 0.0030285 -0.000893546 0.00177353 5.36978e-05 0.000948182 0.0030285 -0.00399743 0.00177353 0 0 -0.000171975 0.000227219 0 0 0.000227219 0.000172337 0.000227219 0.000172337 -0.000463831 4.22997e-05 -0.000171975 0.000227219 -0.000358018 -0.000463831 0 0 0.000172337 5.59007e-06 0 0 5.59007e-06 -3.35923e-05 5.59007e-06 -3.35923e-05 0.000180558 6.09243e-05 0.000172337 5.59007e-06 4.22997e-05 0.000180558 4.22997e-05 0.000180558 -0.000523289 -0.000221815 0.000180558 6.09243e-05 -0.000221815 2.35122e-05 -0.000221815 2.35122e-05 -9.45999e-05 -0.000120445 -0.000523289 -0.000221815 0.000386451 -9.45999e-05 -0.000358018 -0.000463831 0.000940355 -8.47807e-05 -0.000463831 4.22997e-05 -8.47807e-05 -0.000523289 -8.47807e-05 -0.000523289 0.000740489 0.000386451 0.000940355 -8.47807e-05 -0.000463113 0.000740489 0 0 -3.35923e-05 -9.33607e-06 0 0 -9.33607e-06 2.67998e-06 -9.33607e-06 2.67998e-06 -9.93747e-06 -8.87687e-06 -3.35923e-05 -9.33607e-06 6.09243e-05 -9.93747e-06 0 0 2.67998e-06 1.04341e-06 0 0 1.04341e-06 0 1.04341e-06 0 6.35915e-07 0 2.67998e-06 1.04341e-06 -8.87687e-06 6.35915e-07 -8.87687e-06 6.35915e-07 2.80561e-06 -3.64723e-06 6.35915e-07 0 -3.64723e-06 0 -3.64723e-06 0 2.23238e-06 0 2.80561e-06 -3.64723e-06 1.21682e-05 2.23238e-06 6.09243e-05 -9.93747e-06 2.35122e-05 3.74704e-05 -9.93747e-06 -8.87687e-06 3.74704e-05 2.80561e-06 3.74704e-05 2.80561e-06 -1.72724e-05 1.21682e-05 2.35122e-05 3.74704e-05 -0.000120445 -1.72724e-05 -0.000120445 -1.72724e-05 5.87011e-05 -2.96392e-05 -1.72724e-05 1.21682e-05 -2.96392e-05 -1.19437e-05 -2.96392e-05 -1.19437e-05 3.47414e-05 -1.42556e-06 5.87011e-05 -2.96392e-05 4.26646e-05 3.47414e-05 1.21682e-05 2.23238e-06 -1.19437e-05 2.58154e-06 2.23238e-06 0 2.58154e-06 0 2.58154e-06 0 -3.62894e-06 0 -1.19437e-05 2.58154e-06 -1.42556e-06 -3.62894e-06 -1.42556e-06 -3.62894e-06 8.77373e-06 1.91312e-06 -3.62894e-06 0 1.91312e-06 0 1.91312e-06 0 2.88075e-06 0 8.77373e-06 1.91312e-06 -1.84786e-05 2.88075e-06 4.26646e-05 3.47414e-05 -9.98132e-05 -2.33769e-05 3.47414e-05 -1.42556e-06 -2.33769e-05 8.77373e-06 -2.33769e-05 8.77373e-06 -4.25621e-05 -1.84786e-05 -9.98132e-05 -2.33769e-05 0.000142321 -4.25621e-05 -0.000463113 0.000740489 -0.000605684 -0.000479745 0.000740489 0.000386451 -0.000479745 0.000251203 -0.000479745 0.000251203 0.000572507 -0.000354181 -0.000605684 -0.000479745 0.00231688 0.000572507 0.000386451 -9.45999e-05 0.000251203 0.000298293 -9.45999e-05 -0.000120445 0.000298293 5.87011e-05 0.000298293 5.87011e-05 -0.000167256 4.26646e-05 0.000251203 0.000298293 -0.000354181 -0.000167256 -0.000354181 -0.000167256 0.00107532 0.000109373 -0.000167256 4.26646e-05 0.000109373 -9.98132e-05 0.000109373 -9.98132e-05 0.000732281 0.000142321 0.00107532 0.000109373 0.000895783 0.000732281 0.00231688 0.000572507 -0.00062785 0.00176317 0.000572507 -0.000354181 0.00176317 0.00107532 0.00176317 0.00107532 -0.000975159 0.000895783 -0.00062785 0.00176317 -0.00318636 -0.000975159 -0.00318636 -0.000975159 0.00328246 -0.000849757 -0.000975159 0.000895783 -0.000849757 -0.000797171 -0.000849757 -0.000797171 0.00307412 0.000303941 0.00328246 -0.000849757 0.00453837 0.00307412 0.000895783 0.000732281 -0.000797171 9.84237e-05 0.000732281 0.000142321 9.84237e-05 0.000221408 9.84237e-05 0.000221408 -0.000311575 -5.39388e-05 -0.000797171 9.84237e-05 0.000303941 -0.000311575 0.000303941 -0.000311575 0.00181049 0.000409359 -0.000311575 -5.39388e-05 0.000409359 -9.86966e-05 0.000409359 -9.86966e-05 0.00068527 0.000191246 0.00181049 0.000409359 -0.000634645 0.00068527 0.00453837 0.00307412 -0.00662305 0.00110073 0.00307412 0.000303941 0.00110073 0.00181049 0.00110073 0.00181049 -0.00603297 -0.000634645 -0.00662305 0.00110073 -0.00585012 -0.00603297 0.000142321 -4.25621e-05 0.000221408 5.00978e-05 -4.25621e-05 -1.84786e-05 5.00978e-05 -1.44529e-05 5.00978e-05 -1.44529e-05 4.43959e-05 1.26459e-05 0.000221408 5.00978e-05 -5.39388e-05 4.43959e-05 -1.84786e-05 2.88075e-06 -1.44529e-05 -5.01514e-06 2.88075e-06 0 -5.01514e-06 0 -5.01514e-06 0 -3.88361e-06 0 -1.44529e-05 -5.01514e-06 1.26459e-05 -3.88361e-06 1.26459e-05 -3.88361e-06 9.60145e-06 3.06769e-06 -3.88361e-06 0 3.06769e-06 0 3.06769e-06 0 4.38178e-06 0 9.60145e-06 3.06769e-06 -1.77715e-05 4.38178e-06 -5.39388e-05 4.43959e-05 -9.86966e-05 -4.08263e-05 4.43959e-05 1.26459e-05 -4.08263e-05 9.60145e-06 -4.08263e-05 9.60145e-06 -4.40445e-05 -1.77715e-05 -9.86966e-05 -4.08263e-05 0.000191246 -4.40445e-05 0.000191246 -4.40445e-05 0.000340393 9.51325e-05 -4.40445e-05 -1.77715e-05 9.51325e-05 -2.70093e-05 9.51325e-05 -2.70093e-05 0.000228721 3.97558e-05 0.000340393 9.51325e-05 -0.000314352 0.000228721 -1.77715e-05 4.38178e-06 -2.70093e-05 -6.34383e-06 4.38178e-06 0 -6.34383e-06 0 -6.34383e-06 0 -1.82445e-05 0 -2.70093e-05 -6.34383e-06 3.97558e-05 -1.82445e-05 3.97558e-05 -1.82445e-05 0.000143209 1.45452e-06 -1.82445e-05 0 1.45452e-06 0 1.45452e-06 0 5.23718e-05 0 0.000143209 1.45452e-06 0.000125599 5.23718e-05 -0.000314352 0.000228721 -0.00176002 -2.83972e-06 0.000228721 3.97558e-05 -2.83972e-06 0.000143209 -2.83972e-06 0.000143209 -0.00065869 0.000125599 -0.00176002 -2.83972e-06 -0.00266588 -0.00065869 -0.00585012 -0.00603297 0.0359869 -0.00202411 -0.00603297 -0.000634645 -0.00202411 -0.00455692 -0.00202411 -0.00455692 0.0279055 -0.00216123 0.0359869 -0.00202411 0.120477 0.0279055 -0.000634645 0.00068527 -0.00455692 -0.0007193 0.00068527 0.000191246 -0.0007193 0.000340393 -0.0007193 0.000340393 -0.00305273 -0.000314352 -0.00455692 -0.0007193 -0.00216123 -0.00305273 -0.00216123 -0.00305273 0.0130979 -0.00315394 -0.00305273 -0.000314352 -0.00315394 -0.00176002 -0.00315394 -0.00176002 0.00199739 -0.00266588 0.0130979 -0.00315394 0.0395329 0.00199739 0.120477 0.0279055 0.220921 0.081852 0.0279055 -0.00216123 0.081852 0.0130979 0.081852 0.0130979 0.142364 0.0395329 0.220921 0.081852 0.306804 0.142364 -0.00399743 0.00177353 -0.00306085 -0.00266162 0.00177353 5.36978e-05 -0.00266162 0.00455509 -0.00266162 0.00455509 0.045251 0.047651 -0.00306085 -0.00266162 0.0443292 0.045251 5.36978e-05 -0.00742958 0.00455509 -0.0040567 -0.00742958 -0.0010443 -0.0040567 -0.0188632 -0.0040567 -0.0188632 0.0438661 0.0150516 0.00455509 -0.0040567 0.047651 0.0438661 0.047651 0.0438661 0.152459