<?xml version="1.0" encoding="UTF-8"?>
<VTKFile type="UnstructuredGrid" version="0.1" byte_order="LittleEndian" compressor="vtkZLibDataCompressor">
    <UnstructuredGrid>
        <Piece NumberOfPoints="4096" NumberOfCells="1024">
            <Points>
                <DataArray type="Float64" Name="Array" NumberOfComponents="3" format="ascii" RangeMin="0" RangeMax="1">0 0 0 0.03125 0 0 0 0.03125 0 0.03125 0.03125 0 0.03125 0 0 0.0625 0 0 0.03125 0.03125 0 0.0625 0.03125 0 0.03125 0.03125 0 0.0625 0.03125 0 0.03125 0.0625 0 0.0625 0.0625 0 0 0.03125 0 0.03125 0.03125 0 0 0.0625 0 0.03125 0.0625 0 0.0625 0 0 0.09375 0 0 0.0625 0.03125 0 0.09375 0.03125 0 0.09375 0 0 0.125 0 0 0.09375 0.03125 0 0.125 0.03125 0 0.09375 0.03125 0 0.125 0.03125 0 0.09375 0.0625 0 0.125 0.0625 0 0.0625 0.03125 0 0.09375 0.03125 0 0.0625 0.0625 0 0.09375 0.0625 0 0.0625 0.0625 0 0.09375 0.0625 0 0.0625 0.09375 0 0.09375 0.09375 0 0.09375 0.0625 0 0.125 0.0625 0 0.09375 0.09375 0 0.125 0.09375 0 0.09375 0.09375 0 0.125 0.09375 0 0.09375 0.125 0 0.125 0.125 0 0.0625 0.09375 0 0.09375 0.09375 0 0.0625 0.125 0 0.09375 0.125 0 0 0.0625 0 0.03125 0.0625 0 0 0.09375 0 0.03125 0.09375 0 0.03125 0.0625 0 0.0625 0.0625 0 0.03125 0.09375 0 0.0625 0.09375 0 0.03125 0.09375 0 0.0625 0.09375 0 0.03125 0.125 0 0.0625 0.125 0 0 0.09375 0 0.03125 0.09375 0 0 0.125 0 0.03125 0.125 0 0.125 0 0 0.15625 0 0 0.125 0.03125 0 0.15625 0.03125 0 0.15625 0 0 0.1875 0 0 0.15625 0.03125 0 0.1875 0.03125 0 0.15625 0.03125 0 0.1875 0.03125 0 0.15625 0.0625 0 0.1875 0.0625 0 0.125 0.03125 0 0.15625 0.03125 0 0.125 0.0625 0 0.15625 0.0625 0 0.1875 0 0 0.21875 0 0 0.1875 0.03125 0 0.21875 0.03125 0 0.21875 0 0 0.25 0 0 0.21875 0.03125 0 0.25 0.03125 0 0.21875 0.03125 0 0.25 0.03125 0 0.21875 0.0625 0 0.25 0.0625 0 0.1875 0.03125 0 0.21875 0.03125 0 0.1875 0.0625 0 0.21875 0.0625 0 0.1875 0.0625 0 0.21875 0.0625 0 0.1875 0.09375 0 0.21875 0.09375 0 0.21875 0.0625 0 0.25 0.0625 0 0.21875 0.09375 0 0.25 0.09375 0 0.21875 0.09375 0 0.25 0.09375 0 0.21875 0.125 0 0.25 0.125 0 0.1875 0.09375 0 0.21875 0.09375 0 0.1875 0.125 0 0.21875 0.125 0 0.125 0.0625 0 0.15625 0.0625 0 0.125 0.09375 0 0.15625 0.09375 0 0.15625 0.0625 0 0.1875 0.0625 0 0.15625 0.09375 0 0.1875 0.09375 0 0.15625 0.09375 0 0.1875 0.09375 0 0.15625 0.125 0 0.1875 0.125 0 0.125 0.09375 0 0.15625 0.09375 0 0.125 0.125 0 0.15625 0.125 0 0.125 0.125 0 0.15625 0.125 0 0.125 0.15625 0 0.15625 0.15625 0 0.15625 0.125 0 0.1875 0.125 0 0.15625 0.15625 0 0.1875 0.15625 0 0.15625 0.15625 0 0.1875 0.15625 0 0.15625 0.1875 0 0.1875 0.1875 0 0.125 0.15625 0 0.15625 0.15625 0 0.125 0.1875 0 0.15625 0.1875 0 0.1875 0.125 0 0.21875 0.125 0 0.1875 0.15625 0 0.21875 0.15625 0 0.21875 0.125 0 0.25 0.125 0 0.21875 0.15625 0 0.25 0.15625 0 0.21875 0.15625 0 0.25 0.15625 0 0.21875 0.1875 0 0.25 0.1875 0 0.1875 0.15625 0 0.21875 0.15625 0 0.1875 0.1875 0 0.21875 0.1875 0 0.1875 0.1875 0 0.21875 0.1875 0 0.1875 0.21875 0 0.21875 0.21875 0 0.21875 0.1875 0 0.25 0.1875 0 0.21875 0.21875 0 0.25 0.21875 0 0.21875 0.21875 0 0.25 0.21875 0 0.21875 0.25 0 0.25 0.25 0 0.1875 0.21875 0 0.21875 0.21875 0 0.1875 0.25 0 0.21875 0.25 0 0.125 0.1875 0 0.15625 0.1875 0 0.125 0.21875 0 0.15625 0.21875 0 0.15625 0.1875 0 0.1875 0.1875 0 0.15625 0.21875 0 0.1875 0.21875 0 0.15625 0.21875 0 0.1875 0.21875 0 0.15625 0.25 0 0.1875 0.25 0 0.125 0.21875 0 0.15625 0.21875 0 0.125 0.25 0 0.15625 0.25 0 0 0.125 0 0.03125 0.125 0 0 0.15625 0 0.03125 0.15625 0 0.03125 0.125 0 0.0625 0.125 0 0.03125 0.15625 0 0.0625 0.15625 0 0.03125 0.15625 0 0.0625 0.15625 0 0.03125 0.1875 0 0.0625 0.1875 0 0 0.15625 0 0.03125 0.15625 0 0 0.1875 0 0.03125 0.1875 0 0.0625 0.125 0 0.09375 0.125 0 0.0625 0.15625 0 0.09375 0.15625 0 0.09375 0.125 0 0.125 0.125 0 0.09375 0.15625 0 0.125 0.15625 0 0.09375 0.15625 0 0.125 0.15625 0 0.09375 0.1875 0 0.125 0.1875 0 0.0625 0.15625 0 0.09375 0.15625 0 0.0625 0.1875 0 0.09375 0.1875 0 0.0625 0.1875 0 0.09375 0.1875 0 0.0625 0.21875 0 0.09375 0.21875 0 0.09375 0.1875 0 0.125 0.1875 0 0.09375 0.21875 0 0.125 0.21875 0 0.09375 0.21875 0 0.125 0.21875 0 0.09375 0.25 0 0.125 0.25 0 0.0625 0.21875 0 0.09375 0.21875 0 0.0625 0.25 0 0.09375 0.25 0 0 0.1875 0 0.03125 0.1875 0 0 0.21875 0 0.03125 0.21875 0 0.03125 0.1875 0 0.0625 0.1875 0 0.03125 0.21875 0 0.0625 0.21875 0 0.03125 0.21875 0 0.0625 0.21875 0 0.03125 0.25 0 0.0625 0.25 0 0 0.21875 0 0.03125 0.21875 0 0 0.25 0 0.03125 0.25 0 0.25 0 0 0.28125 0 0 0.25 0.03125 0 0.28125 0.03125 0 0.28125 0 0 0.3125 0 0 0.28125 0.03125 0 0.3125 0.03125 0 0.28125 0.03125 0 0.3125 0.03125 0 0.28125 0.0625 0 0.3125 0.0625 0 0.25 0.03125 0 0.28125 0.03125 0 0.25 0.0625 0 0.28125 0.0625 0 0.3125 0 0 0.34375 0 0 0.3125 0.03125 0 0.34375 0.03125 0 0.34375 0 0 0.375 0 0 0.34375 0.03125 0 0.375 0.03125 0 0.34375 0.03125 0 0.375 0.03125 0 0.34375 0.0625 0 0.375 0.0625 0 0.3125 0.03125 0 0.34375 0.03125 0 0.3125 0.0625 0 0.34375 0.0625 0 0.3125 0.0625 0 0.34375 0.0625 0 0.3125 0.09375 0 0.34375 0.09375 0 0.34375 0.0625 0 0.375 0.0625 0 0.34375 0.09375 0 0.375 0.09375 0 0.34375 0.09375 0 0.375 0.09375 0 0.34375 0.125 0 0.375 0.125 0 0.3125 0.09375 0 0.34375 0.09375 0 0.3125 0.125 0 0.34375 0.125 0 0.25 0.0625 0 0.28125 0.0625 0 0.25 0.09375 0 0.28125 0.09375 0 0.28125 0.0625 0 0.3125 0.0625 0 0.28125 0.09375 0 0.3125 0.09375 0 0.28125 0.09375 0 0.3125 0.09375 0 0.28125 0.125 0 0.3125 0.125 0 0.25 0.09375 0 0.28125 0.09375 0 0.25 0.125 0 0.28125 0.125 0 0.375 0 0 0.40625 0 0 0.375 0.03125 0 0.40625 0.03125 0 0.40625 0 0 0.4375 0 0 0.40625 0.03125 0 0.4375 0.03125 0 0.40625 0.03125 0 0.4375 0.03125 0 0.40625 0.0625 0 0.4375 0.0625 0 0.375 0.03125 0 0.40625 0.03125 0 0.375 0.0625 0 0.40625 0.0625 0 0.4375 0 0 0.46875 0 0 0.4375 0.03125 0 0.46875 0.03125 0 0.46875 0 0 0.5 0 0 0.46875 0.03125 0 0.5 0.03125 0 0.46875 0.03125 0 0.5 0.03125 0 0.46875 0.0625 0 0.5 0.0625 0 0.4375 0.03125 0 0.46875 0.03125 0 0.4375 0.0625 0 0.46875 0.0625 0 0.4375 0.0625 0 0.46875 0.0625 0 0.4375 0.09375 0 0.46875 0.09375 0 0.46875 0.0625 0 0.5 0.0625 0 0.46875 0.09375 0 0.5 0.09375 0 0.46875 0.09375 0 0.5 0.09375 0 0.46875 0.125 0 0.5 0.125 0 0.4375 0.09375 0 0.46875 0.09375 0 0.4375 0.125 0 0.46875 0.125 0 0.375 0.0625 0 0.40625 0.0625 0 0.375 0.09375 0 0.40625 0.09375 0 0.40625 0.0625 0 0.4375 0.0625 0 0.40625 0.09375 0 0.4375 0.09375 0 0.40625 0.09375 0 0.4375 0.09375 0 0.40625 0.125 0 0.4375 0.125 0 0.375 0.09375 0 0.40625 0.09375 0 0.375 0.125 0 0.40625 0.125 0 0.375 0.125 0 0.40625 0.125 0 0.375 0.15625 0 0.40625 0.15625 0 0.40625 0.125 0 0.4375 0.125 0 0.40625 0.15625 0 0.4375 0.15625 0 0.40625 0.15625 0 0.4375 0.15625 0 0.40625 0.1875 0 0.4375 0.1875 0 0.375 0.15625 0 0.40625 0.15625 0 0.375 0.1875 0 0.40625 0.1875 0 0.4375 0.125 0 0.46875 0.125 0 0.4375 0.15625 0 0.46875 0.15625 0 0.46875 0.125 0 0.5 0.125 0 0.46875 0.15625 0 0.5 0.15625 0 0.46875 0.15625 0 0.5 0.15625 0 0.46875 0.1875 0 0.5 0.1875 0 0.4375 0.15625 0 0.46875 0.15625 0 0.4375 0.1875 0 0.46875 0.1875 0 0.4375 0.1875 0 0.46875 0.1875 0 0.4375 0.21875 0 0.46875 0.21875 0 0.46875 0.1875 0 0.5 0.1875 0 0.46875 0.21875 0 0.5 0.21875 0 0.46875 0.21875 0 0.5 0.21875 0 0.46875 0.25 0 0.5 0.25 0 0.4375 0.21875 0 0.46875 0.21875 0 0.4375 0.25 0 0.46875 0.25 0 0.375 0.1875 0 0.40625 0.1875 0 0.375 0.21875 0 0.40625 0.21875 0 0.40625 0.1875 0 0.4375 0.1875 0 0.40625 0.21875 0 0.4375 0.21875 0 0.40625 0.21875 0 0.4375 0.21875 0 0.40625 0.25 0 0.4375 0.25 0 0.375 0.21875 0 0.40625 0.21875 0 0.375 0.25 0 0.40625 0.25 0 0.25 0.125 0 0.28125 0.125 0 0.25 0.15625 0 0.28125 0.15625 0 0.28125 0.125 0 0.3125 0.125 0 0.28125 0.15625 0 0.3125 0.15625 0 0.28125 0.15625 0 0.3125 0.15625 0 0.28125 0.1875 0 0.3125 0.1875 0 0.25 0.15625 0 0.28125 0.15625 0 0.25 0.1875 0 0.28125 0.1875 0 0.3125 0.125 0 0.34375 0.125 0 0.3125 0.15625 0 0.34375 0.15625 0 0.34375 0.125 0 0.375 0.125 0 0.34375 0.15625 0 0.375 0.15625 0 0.34375 0.15625 0 0.375 0.15625 0 0.34375 0.1875 0 0.375 0.1875 0 0.3125 0.15625 0 0.34375 0.15625 0 0.3125 0.1875 0 0.34375 0.1875 0 0.3125 0.1875 0 0.34375 0.1875 0 0.3125 0.21875 0 0.34375 0.21875 0 0.34375 0.1875 0 0.375 0.1875 0 0.34375 0.21875 0 0.375 0.21875 0 0.34375 0.21875 0 0.375 0.21875 0 0.34375 0.25 0 0.375 0.25 0 0.3125 0.21875 0 0.34375 0.21875 0 0.3125 0.25 0 0.34375 0.25 0 0.25 0.1875 0 0.28125 0.1875 0 0.25 0.21875 0 0.28125 0.21875 0 0.28125 0.1875 0 0.3125 0.1875 0 0.28125 0.21875 0 0.3125 0.21875 0 0.28125 0.21875 0 0.3125 0.21875 0 0.28125 0.25 0 0.3125 0.25 0 0.25 0.21875 0 0.28125 0.21875 0 0.25 0.25 0 0.28125 0.25 0 0.25 0.25 0 0.28125 0.25 0 0.25 0.28125 0 0.28125 0.28125 0 0.28125 0.25 0 0.3125 0.25 0 0.28125 0.28125 0 0.3125 0.28125 0 0.28125 0.28125 0 0.3125 0.28125 0 0.28125 0.3125 0 0.3125 0.3125 0 0.25 0.28125 0 0.28125 0.28125 0 0.25 0.3125 0 0.28125 0.3125 0 0.3125 0.25 0 0.34375 0.25 0 0.3125 0.28125 0 0.34375 0.28125 0 0.34375 0.25 0 0.375 0.25 0 0.34375 0.28125 0 0.375 0.28125 0 0.34375 0.28125 0 0.375 0.28125 0 0.34375 0.3125 0 0.375 0.3125 0 0.3125 0.28125 0 0.34375 0.28125 0 0.3125 0.3125 0 0.34375 0.3125 0 0.3125 0.3125 0 0.34375 0.3125 0 0.3125 0.34375 0 0.34375 0.34375 0 0.34375 0.3125 0 0.375 0.3125 0 0.34375 0.34375 0 0.375 0.34375 0 0.34375 0.34375 0 0.375 0.34375 0 0.34375 0.375 0 0.375 0.375 0 0.3125 0.34375 0 0.34375 0.34375 0 0.3125 0.375 0 0.34375 0.375 0 0.25 0.3125 0 0.28125 0.3125 0 0.25 0.34375 0 0.28125 0.34375 0 0.28125 0.3125 0 0.3125 0.3125 0 0.28125 0.34375 0 0.3125 0.34375 0 0.28125 0.34375 0 0.3125 0.34375 0 0.28125 0.375 0 0.3125 0.375 0 0.25 0.34375 0 0.28125 0.34375 0 0.25 0.375 0 0.28125 0.375 0 0.375 0.25 0 0.40625 0.25 0 0.375 0.28125 0 0.40625 0.28125 0 0.40625 0.25 0 0.4375 0.25 0 0.40625 0.28125 0 0.4375 0.28125 0 0.40625 0.28125 0 0.4375 0.28125 0 0.40625 0.3125 0 0.4375 0.3125 0 0.375 0.28125 0 0.40625 0.28125 0 0.375 0.3125 0 0.40625 0.3125 0 0.4375 0.25 0 0.46875 0.25 0 0.4375 0.28125 0 0.46875 0.28125 0 0.46875 0.25 0 0.5 0.25 0 0.46875 0.28125 0 0.5 0.28125 0 0.46875 0.28125 0 0.5 0.28125 0 0.46875 0.3125 0
[...]
            <PointData>
                <DataArray Name="u" type="Float64" format="ascii">0 0 0 0.00424893 0 0 0.00424893 -0.000741991 0.00424893 -0.000741991 -0.000741991 0.00614975 0 0.00424893 0 -0.000741991 0 0 -0.000741991 -0.00126806 0 0 -0.00126806 0.00336077 -0.00126806 0.00336077 -0.00210875 -0.0020653 -0.000741991 -0.00126806 0.00614975 -0.00210875 0.00614975 -0.00210875 -0.00210875 0.00129888 -0.00210875 -0.0020653 0.00129888 0.00126608 0.00129888 0.00126608 0.00126608 0.000165574 -0.00210875 0.00129888 -0.0020653 0.00126608 0 -0.000741991 0 -0.00126806 -0.000741991 0.00614975 -0.00126806 -0.00210875 -0.00126806 -0.00210875 0.00336077 -0.0020653 0 -0.00126806 0 0.00336077 0 0 0.00336077 0.00297524 0 0 0.00297524 0.00111017 0.00297524 0.00111017 0.000387682 0.00475957 0.00336077 0.00297524 -0.0020653 0.000387682 0 0 0.00111017 -0.00148418 0 0 -0.00148418 0.00290251 -0.00148418 0.00290251 0.001666 -0.00412202 0.00111017 -0.00148418 0.00475957 0.001666 0.00475957 0.001666 -0.00428896 0.000752158 0.001666 -0.00412202 0.000752158 0.00216241 0.000752158 0.00216241 -0.00255717 0.00370822 -0.00428896 0.000752158 0.00328378 -0.00255717 -0.0020653 0.000387682 0.00126608 0.00109516 0.000387682 0.00475957 0.00109516 -0.00428896 0.00109516 -0.00428896 0.00308712 0.00328378 0.00126608 0.00109516 0.000165574 0.00308712 0.000165574 0.00308712 0.00308712 -0.00598991 0.00308712 0.00328378 -0.00598991 0.00569761 -0.00598991 0.00569761 0.00569761 -0.00149365 0.00308712 -0.00598991 0.00328378 0.00569761 0.00328378 -0.00255717 0.00569761 0.0051019 -0.00255717 0.00370822 0.0051019 -0.00317938 0.0051019 -0.00317938 -0.00124123 -0.00384449 0.00569761 0.0051019 -0.00149365 -0.00124123 -0.00149365 -0.00124123 -0.00124123 -0.00318872 -0.00124123 -0.00384449 -0.00318872 0.00275872 -0.00318872 0.00275872 0.00275872 0.0310959 -0.00124123 -0.00318872 -0.00384449 0.00275872 0.00328378 0.00569761 -0.00255717 0.0051019 0.00569761 -0.00149365 0.0051019 -0.00124123 0.0051019 -0.00124123 -0.00317938 -0.00384449 -0.00255717 0.0051019 0.00370822 -0.00317938 0 0.00336077 0 0.00297524 0.00336077 -0.0020653 0.00297524 0.000387682 0.00297524 0.000387682 0.00111017 0.00475957 0 0.00297524 0 0.00111017 -0.0020653 0.00126608 0.000387682 0.00109516 0.00126608 0.000165574 0.00109516 0.00308712 0.00109516 0.00308712 -0.00428896 0.00328378 0.000387682 0.00109516 0.00475957 -0.00428896 0.00475957 -0.00428896 0.001666 0.000752158 -0.00428896 0.00328378 0.000752158 -0.00255717 0.000752158 -0.00255717 0.00216241 0.00370822 0.001666 0.000752158 -0.00412202 0.00216241 0 0.00111017 0 -0.00148418 0.00111017 0.00475957 -0.00148418 0.001666 -0.00148418 0.001666 0.00290251 -0.00412202 0 -0.00148418 0 0.00290251 0 0 0.00290251 0.00036649 0 0 0.00036649 -0.00636155 0.00036649 -0.00636155 0.00463663 0.00283476 0.00290251 0.00036649 -0.00412202 0.00463663 0 0 -0.00636155 -0.00226899 0 0 -0.00226899 0.00321765 -0.00226899 0.00321765 -0.00410499 -0.00258562 -0.00636155 -0.00226899 0.00283476 -0.00410499 0.00283476 -0.00410499 0.00150144 0.00186256 -0.00410499 -0.00258562 0.00186256 0.00324424 0.00186256 0.00324424 -0.00248083 -0.00828432 0.00150144 0.00186256 -0.00176815 -0.00248083 -0.00412202 0.00463663 0.00216241 -0.00293431 0.00463663 0.00283476 -0.00293431 0.00150144 -0.00293431 0.00150144 0.0017147 -0.00176815 0.00216241 -0.00293431 0.00370822 0.0017147 0 0 0.00321765 0.00637429 0 0 0.00637429 0.0093532 0.00637429 0.0093532 -0.00456463 -0.00401108 0.00321765 0.00637429 -0.00258562 -0.00456463 0 0 0.0093532 0.00831922 0 0 0.00831922 0.00500563 0.00831922 0.00500563 0.000325514 -0.00132692 0.0093532 0.00831922 -0.00401108 0.000325514 -0.00401108 0.000325514 0.0036623 0.0045882 0.000325514 -0.00132692 0.0045882 0.00705444 0.0045882 0.00705444 -0.00475677 0.00194571 0.0036623 0.0045882 0.000325911 -0.00475677 -0.00258562 -0.00456463 0.00324424 0.00709074 -0.00456463 -0.00401108 0.00709074 0.0036623 0.00709074 0.0036623 -0.00349837 0.000325911 0.00324424 0.00709074 -0.00828432 -0.00349837 -0.00828432 -0.00349837 0.00661623 -0.00321273 -0.00349837 0.000325911 -0.00321273 0.00296432 -0.00321273 0.00296432 0.038561 0.0332822 0.00661623 -0.00321273 0.0319434 0.038561 0.000325911 -0.00475677 0.00296432 -0.00167444 -0.00475677 0.00194571 -0.00167444 -0.018143 -0.00167444 -0.018143 0.0357474 0.0150468 0.00296432 -0.00167444 0.0332822 0.0357474 0.0332822 0.0357474 0.127896 0.119757 0.0357474 0.0150468 0.119757 0.103826 0.119757 0.103826 0.267685 0.24062 0.127896 0.119757 0.284973 0.267685 0.0319434 0.038561 0.0971756 0.126421 0.038561 0.0332822 0.126421 0.127896 0.126421 0.127896 0.262538 0.284973 0.0971756 0.126421 0.220322 0.262538 0.00370822 0.0017147 -0.00317938 -0.00449435 0.0017147 -0.00176815 -0.00449435 -0.00740469 -0.00449435 -0.00740469 0.00318915 0.00480081 -0.00317938 -0.00449435 -0.00384449 0.00318915 -0.00176815 -0.00248083 -0.00740469 0.00482968 -0.00248083 -0.00828432 0.00482968 0.00661623 0.00482968 0.00661623 0.00828858 0.0319434 -0.00740469 0.00482968 0.00480081 0.00828858 0.00480081 0.00828858 0.0504473 0.0718068 0.00828858 0.0319434 0.0718068 0.0971756 0.0718068 0.0971756 0.172054 0.220322 0.0504473 0.0718068 0.106048 0.172054 -0.00384449 0.00318915 0.00275872 0.0185217 0.00318915 0.00480081 0.0185217 0.0504473 0.0185217 0.0504473 0.059799 0.106048 0.00275872 0.0185217 0.0310959 0.059799 0.0310959 0.059799 0.059799 0.13566 0.059799 0.106048 0.13566 0.205727 0.13566 0.205727 0.205727 0.319497 0.059799 0.13566 0.106048 0.205727 0.106048 0.172054 0.205727 0.287463 0.172054 0.220322 0.287463 0.360946 0.287463 0.360946 0.419666 0.510138 0.205727 0.287463 0.319497 0.419666 0.319497 0.419666 0.419666 0.5251 0.419666 0.510138 0.5251 0.624368 0.5251 0.624368 0.624368 0.712547 0.419666 0.5251 0.510138 0.624368 0.106048 0.205727 0.172054 0.287463 0.205727 0.319497 0.287463 0.419666 0.287463 0.419666 0.360946 0.510138 0.172054 0.287463 0.220322 0.360946 0.220322 0.262538 0.360946 0.405337 0.262538 0.284973 0.405337 0.439279 0.405337 0.439279 0.558501 0.584713 0.360946 0.405337 0.510138 0.558501 0.284973 0.267685 0.439279 0.435251 0.267685 0.24062 0.435251 0.394285 0.435251 0.394285 0.590706 0.543883 0.439279 0.435251 0.584713 0.590706 0.584713 0.590706 0.71073 0.717321 0.590706 0.543883 0.717321 0.683287 0.717321 0.683287 0.809571 0.781202 0.71073 0.717321 0.810754 0.809571 0.510138 0.558501 0.624368 0.692612 0.558501 0.584713 0.692612 0.71073 0.692612 0.71073 0.785586 0.810754 0.624368 0.692612 0.712547 0.785586 0.712547 0.785586 0.785586 0.85552 0.785586 0.810754 0.85552 0.885691 0.85552 0.885691 0.885691 0.917395 0.785586 0.85552 0.810754 0.885691 0.810754 0.809571 0.885691 0.878285 0.809571 0.781202 0.878285 0.845265 0.878285 0.845265 0.914296 0.882393 0.885691 0.878285 0.917395 0.914296 0.917395 0.914296 0.914296 0.910951 0.914296 0.882393 0.910951 0.875377 0.910951 0.875377 0.875377 0.836818 0.914296 0.910951 0.882393 0.875377 0.810754 0.885691 0.809571 0.878285 0.885691 0.917395 0.878285 0.914296 0.878285 0.914296 0.845265 0.882393 0.809571 0.878285 0.781202 0.845265 0.220322 0.360946 0.262538 0.405337 0.360946 0.510138 0.405337 0.558501 0.405337 0.558501 0.439279 0.584713 0.262538 0.405337 0.284973 0.439279 0.510138 0.624368 0.558501 0.692612 0.624368 0.712547 0.692612 0.785586 0.692612 0.785586 0.71073 0.810754 0.558501 0.692612 0.584713 0.71073 0.584713 0.71073 0.590706 0.717321 0.71073 0.810754 0.717321 0.809571 0.717321 0.809571 0.683287 0.781202 0.590706 0.717321 0.543883 0.683287 0.284973 0.439279 0.267685 0.435251 0.439279 0.584713 0.435251 0.590706 0.435251 0.590706 0.394285 0.543883 0.267685 0.435251 0.24062 0.394285 0 0.00290251 0 0.00036649 0.00290251 -0.00412202 0.00036649 0.00463663 0.00036649 0.00463663 -0.00636155 0.00283476 0 0.00036649 0 -0.00636155 -0.00412202 0.00216241 0.00463663 -0.00293431 0.00216241 0.00370822 -0.00293431 0.0017147 -0.00293431 0.0017147 0.00150144 -0.00176815 0.00463663 -0.00293431 0.00283476 0.00150144 0.00283476 0.00150144 -0.00410499 0.00186256 0.00150144 -0.00176815 0.00186256 -0.00248083 0.00186256 -0.00248083 0.00324424 -0.00828432 -0.00410499 0.00186256 -0.00258562 0.00324424 0 -0.00636155 0 -0.00226899 -0.00636155 0.00283476 -0.00226899 -0.00410499 -0.00226899 -0.00410499 0.00321765 -0.00258562 0 -0.00226899 0 0.00321765 0.00370822 -0.00317938 0.0017147 -0.00449435 -0.00317938 -0.00384449 -0.00449435 0.00318915 -0.00449435 0.00318915 -0.00740469 0.00480081 0.0017147 -0.00449435 -0.00176815 -0.00740469 -0.00384449 0.00275872 0.00318915 0.0185217 0.00275872 0.0310959 0.0185217 0.059799 0.0185217 0.059799 0.0504473 0.106048 0.00318915 0.0185217 0.00480081 0.0504473 0.00480081 0.0504473 0.00828858 0.0718068 0.0504473 0.106048 0.0718068 0.172054 0.0718068 0.172054 0.0971756 0.220322 0.00828858 0.0718068 0.0319434 0.0971756 -0.00176815 -0.00740469 -0.00248083 0.00482968 -0.00740469 0.00480081 0.00482968 0.00828858 0.00482968 0.00828858 0.00661623 0.0319434 -0.00248083 0.00482968 -0.00828432 0.00661623 -0.00828432 0.00661623 -0.00349837 -0.00321273 0.00661623 0.0319434 -0.00321273 0.038561 -0.00321273 0.038561 0.00296432 0.0332822 -0.00349837 -0.00321273 0.000325911 0.00296432 0.0319434 0.0971756 0.038561 0.126421 0.0971756 0.220322 0.126421 0.262538 0.126421 0.262538 0.127896 0.284973 0.038561 0.126421 0.0332822 0.127896 0.0332822 0.127896 0.0357474 0.119757 0.127896 0.284973 0.119757 0.267685 0.119757 0.267685 0.103826 0.24062 0.0357474 0.119757 0.0150468 0.103826 0.000325911 0.00296432 -0.00475677 -0.00167444 0.00296432 0.0332822 -0.00167444 0.0357474 -0.00167444 0.0357474 -0.018143 0.0150468 -0.00475677 -0.00167444 0.00194571 -0.018143 0 0.00321765 0 0.00637429 0.00321765 -0.00258562 0.00637429 -0.00456463 0.00637429 -0.00456463 0.0093532 -0.00401108 0 0.00637429 0 0.0093532 -0.00258562 0.00324424 -0.00456463 0.00709074 0.00324424 -0.00828432 0.00709074 -0.00349837 0.00709074 -0.00349837 0.0036623 0.000325911 -0.00456463 0.00709074 -0.00401108 0.0036623 -0.00401108 0.0036623 0.000325514 0.0045882 0.0036623 0.000325911 0.0045882 -0.00475677 0.0045882 -0.00475677 0.00705444 0.00194571 0.000325514 0.0045882 -0.00132692 0.00705444 0 0.0093532 0 0.00831922 0.0093532 -0.00401108 0.00831922 0.000325514 0.00831922 0.000325514 0.00500563 -0.00132692 0 0.00831922 0 0.00500563 0 0 0.00500563 0.00208209 0 0 0.00208209 -0.000525998 0.00208209 -0.000525998 -0.00298736 -0.000184466 0.00500563 0.00208209 -0.00132692 -0.00298736 0 0 -0.000525998 -0.00127013 0 0 -0.00127013 -0.000175386 -0.00127013 -0.000175386 0.00118202 0.000271163 -0.000525998 -0.00127013 -0.000184466 0.00118202 -0.000184466 0.00118202 -0.00587612 -0.00225421 0.00118202 0.000271163 -0.00225421 0.00143466 -0.00225421 0.00143466 -0.00370351 -0.00292713 -0.00587612 -0.00225421 0.00543508 -0.00370351 -0.00132692 -0.00298736 0.00705444 -0.000273948 -0.00298736 -0.000184466 -0.000273948 -0.00587612 -0.000273948 -0.00587612 0.0115854 0.00543508 0.00705444 -0.000273948 0.00194571 0.0115854 0 0 -0.000175386 0.00048316 0 0 0.00048316 0.000187371 0.00048316 0.000187371 0.000113877 0.000477303 -0.000175386 0.00048316 0.000271163 0.000113877 0 0 0.000187371 -9.59107e-05 0 0 -9.59107e-05 -7.20004e-05 -9.59107e-05 -7.20004e-05 0.000338563 4.64596e-05 0.000187371 -9.59107e-05 0.000477303 0.000338563 0.000477303 0.000338563 -4.90405e-05 -5.4808e-05 0.000338563 4.64596e-05 -5.4808e-05 7.38848e-05 -5.4808e-05 7.38848e-05 0.00033851 -6.43672e-05 -4.90405e-05 -5.4808e-05 0.00137564 0.00033851 0.000271163 0.000113877 0.00143466 0.000963124 0.000113877 0.000477303 0.000963124 -4.90405e-05 0.000963124 -4.90405e-05 0.000904885 0.00137564 0.00143466 0.000963124 -0.00292713 0.000904885 -0.00292713 0.000904885 -0.000240346 -0.00206173 0.000904885 0.00137564 -0.00206173 0.000264286 -0.00206173 0.000264286 0.0016696 -0.00105721 -0.000240346 -0.00206173 0.00670982 0.0016696 0.00137564 0.00033851 0.000264286 0.000872088 0.00033851 -6.43672e-05 0.000872088 0.000265669 0.000872088 0.000265669 -0.000399114 0.000157164 0.000264286 0.000872088 -0.00105721 -0.000399114 -0.00105721 -0.000399114 0.00177979 -0.000115509 -0.000399114 0.000157164 -0.000115509 -0.000212488 -0.000115509 -0.000212488 0.00101894 7.74759e-05 0.00177979 -0.000115509 0.000863386 0.00101894 0.00670982 0.0016696 -0.00399887 0.00333292 0.0016696 -0.00105721 0.00333292 0.00177979 0.00333292 0.00177979 -0.0053 0.000863386 -0.00399887 0.00333292 -0.0100081 -0.0053 0.00194571 0.0115854 -0.018143 -0.00990249 0.0115854 0.00543508 -0.00990249 0.00897855 -0.00990249 0.00897855 -0.0176646 -0.0184641 -0.018143 -0.00990249 0.0150468 -0.0176646 0.00543508 -0.00370351 0.00897855 0.00884184 -0.00370351 -0.00292713 0.00884184 -0.000240346 0.00884184 -0.000240346 0.000565135 0.00670982 0.00897855 0.00884184 -0.0184641 0.000565135 -0.0184641 0.000565135 -0.00248115 -0.0165571 0.000565135 0.00670982 -0.0165571 -0.00399887 -0.0165571 -0.00399887 0.0202119 -0.0100081 -0.00248115 -0.0165571 0.103725 0.0202119 0.0150468 -0.0176646 0.103826 0.0526637 -0.0176646 -0.0184641 0.0526637 -0.00248115 0.0526637 -0.00248115 0.193444 0.103725 0.103826 0.0526637 0.24062 0.193444 0 0 -7.20004e-05 -3.55249e-06 0 0 -3.55249e-06 6.49672e-06 -3.55249e-06 6.49672e-06 -3.14054e-05 -7.53036e-06 -7.20004e-05 -3.55249e-06 4.64596e-05 -3.14054e-05 0 0 6.49672e-06 4.66837e-07 0 0 4.66837e-07 -5.24883e-07 4.66837e-07 -5.24883e-07 2.59696e-06 5.38025e-07 6.49672e-06 4.66837e-07 -7.53036e-06 2.59696e-06 -7.53036e-06 2.59696e-06 -5.50899e-06 -3.19243e-06 2.59696e-06 5.38025e-07 -3.19243e-06 5.77055e-07 -3.19243e-06 5.77055e-07 1.55409e-06 -7.73935e-07 -5.50899e-06 -3.19243e-06 7.20765e-06 1.55409e-06 4.64596e-05 -3.14054e-05 7.38848e-05 3.11954e-05 -3.14054e-05 -7.53036e-06 3.11954e-05 -5.50899e-06 3.11954e-05 -5.50899e-06 -2.47989e-05 7.20765e-06 7.38848e-05 3.11954e-05 -6.43672e-05 -2.47989e-05 0 0 -5.24883e-07 -3.87679e-10 0 0 -3.87679e-10 3.77995e-08 -3.87679e-10 3.77995e-08 -2.36679e-07 -1.43146e-08 -5.24883e-07 -3.87679e-10 5.38025e-07 -2.36679e-07 0 0 3.77995e-08 -5.18614e-09 0 0 -5.18614e-09 0 -5.18614e-09 0 1.70066e-08 0 3.77995e-08 -5.18614e-09 -1.43146e-08 1.70066e-08 -1.43146e-08 1.70066e-08 -6.66538e-08 -4.17321e-09 1.70066e-08 0 -4.17321e-09 0 -4.17321e-09 0 -8.50517e-09 0 -6.66538e-08 -4.17321e-09 6.43412e-08 -8.50517e-09 5.38025e-07 -2.36679e-07 5.77055e-07 2.13272e-07 -2.36679e-07 -1.43146e-08 2.13272e-07 -6.66538e-08 2.13272e-07 -6.66538e-08 -3.19504e-08 6.43412e-08 5.77055e-07 2.13272e-07 -7.73935e-07 -3.19504e-08 -7.73935e-07 -3.19504e-08 1.39172e-06 -2.87552e-07 -3.19504e-08 6.43412e-08 -2.87552e-07 -5.59754e-08 -2.87552e-07 -5.59754e-08 4.13031e-07 -9.73011e-08 1.39172e-06 -2.87552e-07 7.83398e-07 4.13031e-07 6.43412e-08 -8.50517e-09 -5.59754e-08 2.51309e-08 -8.50517e-09 0 2.51309e-08 0 2.51309e-08 0 -1.02736e-08 0 -5.59754e-08 2.51309e-08 -9.73011e-08 -1.02736e-08 -9.73011e-08 -1.02736e-08 8.67091e-08 -2.35124e-08 -1.02736e-08 0 -2.35124e-08 0 -2.35124e-08 0 1.32648e-08 0 8.67091e-08 -2.35124e-08 5.74269e-08 1.32648e-08 7.83398e-07 4.13031e-07 -1.56976e-06 1.8285e-07 4.13031e-07 -9.73011e-08 1.8285e-07 8.67091e-08 1.8285e-07 8.67091e-08 -3.85877e-07 5.74269e-08 -1.56976e-06 1.8285e-07 -8.46507e-08 -3.85877e-07 -6.43672e-05 -2.47989e-05 0.000265669 -3.28311e-05 -2.47989e-05 7.20765e-06 -3.28311e-05 -2.21264e-05 -3.28311e-05 -2.21264e-05 8.28477e-05 -7.44692e-06 0.000265669 -3.28311e-05 0.000157164 8.28477e-05 7.20765e-06 1.55409e-06 -2.21264e-05 2.44517e-06 1.55409e-06 -7.73935e-07 2.44517e-06 1.39172e-06 2.44517e-06 1.39172e-06 -6.77263e-06 7.83398e-07 -2.21264e-05 2.44517e-06 -7.44692e-06 -6.77263e-06 -7.44692e-06 -6.77263e-06 2.07983e-05 -6.86092e-07 -6.77263e-06 7.83398e-07 -6.86092e-07 -1.56976e-06 -6.86092e-07 -1.56976e-06 5.81073e-06 -8.46507e-08 2.07983e-05 -6.86092e-07 -5.40755e-06 5.81073e-06 0.000157164 8.28477e-05 -0.000212488 4.11345e-06 8.28477e-05 -7.44692e-06 4.11345e-06 2.07983e-05 4.11345e-06 2.07983e-05 -7.65727e-05 -5.40755e-06 -0.000212488 4.11345e-06 7.74759e-05 -7.65727e-05 7.74759e-05 -7.65727e-05 0.000360937 3.3013e-05 -7.65727e-05 -5.40755e-06 3.3013e-05 -2.60232e-05 3.3013e-05 -2.60232e-05 0.000177954 -5.1652e-07 0.000360937 3.3013e-05 -3.35737e-05 0.000177954 -5.40755e-06 5.81073e-06 -2.60232e-05 -7.96107e-07 5.81073e-06 -8.46507e-08 -7.96107e-07 1.81119e-06 -7.96107e-07 1.81119e-06 -1.18084e-05 1.09417e-06 -2.60232e-05 -7.96107e-07 -5.1652e-07 -1.18084e-05 -5.1652e-07 -1.18084e-05 8.298e-05 -1.16034e-05 -1.18084e-05 1.09417e-06 -1.16034e-05 -4.64791e-06 -1.16034e-05 -4.64791e-06 2.25842e-05 -1.0395e-05 8.298e-05 -1.16034e-05 0.000144939 2.25842e-05 -3.35737e-05 0.000177954 -0.00123726 0.000131602 0.000177954 -5.1652e-07 0.000131602 8.298e-05 0.000131602 8.298e-05 -0.000362987 0.000144939 -0.00123726 0.000131602 -0.00246944 -0.000362987 -8.46507e-08 -3.85877e-07 1.81119e-06 -1.6436e-07 -3.85877e-07 5.74269e-08 -1.6436e-07 -9.36309e-08 -1.6436e-07 -9.36309e-08 6.4927e-07 -1.65699e-07 1.81119e-06 -1.6436e-07 1.09417e-06 6.4927e-07 5.74269e-08 1.32648e-08 -9.36309e-08 2.53459e-08 1.32648e-08 0 2.53459e-08 0 2.53459e-08 0 -1.01462e-08 0 -9.36309e-08 2.53459e-08 -1.65699e-07 -1.01462e-08 -1.65699e-07 -1.01462e-08 1.42818e-07 -9.40723e-08 -1.01462e-08 0 -9.40723e-08 0 -9.40723e-08 0 -7.11725e-08 0 1.42818e-07 -9.40723e-08 7.30383e-07 -7.11725e-08 1.09417e-06 6.4927e-07 -4.64791e-06 1.23222e-06 6.4927e-07 -1.65699e-07 1.23222e-06 1.42818e-07 1.23222e-06 1.42818e-07 -6.04448e-07 7.30383e-07 -4.64791e-06 1.23222e-06 -1.0395e-05 -6.04448e-07 -1.0395e-05 -6.04448e-07 -4.47512e-06 -3.90702e-06 -6.04448e-07 7.30383e-07 -3.90702e-06 6.503e-07 -3.90702e-06 6.503e-07 -4.67006e-06 -1.58632e-07 -4.47512e-06 -3.90702e-06 8.87213e-06 -4.67006e-06 7.30383e-07 -7.11725e-08 6.503e-07 1.30279e-07 -7.11725e-08 0 1.30279e-07 0 1.30279e-07 0 2.65012e-07 0 6.503e-07 1.30279e-07 -1.58632e-07 2.65012e-07 -1.58632e-07 2.65012e-07 -6.47171e-07 2.0108e-07 2.65012e-07 0 2.0108e-07 0 2.0108e-07 0 9.87564e-08 0 -6.47171e-07 2.0108e-07 -5.23849e-07 9.87564e-08 8.87213e-06 -4.67006e-06 1.51029e-05 -2.82569e-06 -4.67006e-06 -1.58632e-07 -2.82569e-06 -6.47171e-07 -2.82569e-06 -6.47171e-07 -1.31022e-06 -5.23849e-07 1.51029e-05 -2.82569e-06 1.26621e-05 -1.31022e-06 -0.00246944 -0.000362987 -0.00202213 -0.00106038 -0.000362987 0.000144939 -0.00106038 4.67007e-05 -0.00106038 4.67007e-05 -0.0013472 -0.000151106 -0.00202213 -0.00106038 0.00018323 -0.0013472 0.000144939 2.25842e-05 4.67007e-05 6.74451e-05 2.25842e-05 -1.0395e-05 6.74451e-05 -4.47512e-06 6.74451e-05 -4.47512e-06 7.30869e-05 8.87213e-06 4.67007e-05 6.74451e-05 -0.000151106 7.30869e-05 -0.000151106 7.30869e-05 -0.000264679 4.60303e-05 7.30869e-05 8.87213e-06 4.60303e-05 1.51029e-05 4.60303e-05 1.51029e-05 2.37442e-05 1.26621e-05 -0.000264679 4.60303e-05 -0.000255099 2.37442e-05 0.00018323 -0.0013472 0.00229753 -0.00115335 -0.0013472 -0.000151106 -0.00115335 -0.000264679 -0.00115335 -0.000264679 -0.000841085 -0.000255099 0.00229753 -0.00115335 0.0031211 -0.000841085 0.24062 0.193444 0.394285 0.345226 0.193444 0.103725 0.345226 0.259135 0.345226 0.259135 0.478979 0.405005 0.394285 0.345226 0.543883 0.478979 0.103725 0.0202119 0.259135 0.132266 0.0202119 -0.0100081 0.132266 0.0318999 0.132266 0.0318999 0.277121 0.124686 0.259135 0.132266 0.405005 0.277121 0.405005 0.277121 0.515606 0.400934 0.277121 0.124686 0.400934 0.235829 0.400934 0.235829 0.489001 0.329873 0.515606 0.400934 0.601879 0.489001 0.543883 0.478979 0.683287 0.601466 0.478979 0.405005 0.601466 0.515606 0.601466 0.515606 0.701256 0.601879 0.683287 0.601466 0.781202 0.701256 -0.0100081 -0.0053 0.0318999 -0.00450202 -0.0053 0.000863386 -0.00450202 -0.00440284 -0.00450202 -0.00440284 0.026303 -0.0031359 0.0318999 -0.00450202 0.124686 0.026303 0.000863386 0.00101894 -0.00440284 -0.000237631 0.00101894 7.74759e-05 -0.000237631 0.000360937 -0.000237631 0.000360937 -0.00260269 -3.35737e-05 -0.00440284 -0.000237631 -0.0031359 -0.00260269 -0.0031359 -0.00260269 0.0126851 -0.00309913 -0.00260269 -3.35737e-05 -0.00309913 -0.00123726 -0.00309913 -0.00123726 0.00168