<?xml version="1.0" encoding="UTF-8"?>
<VTKFile type="UnstructuredGrid" version="0.1" byte_order="LittleEndian" compressor="vtkZLibDataCompressor">
    <UnstructuredGrid>
        <Piece NumberOfPoints="4096" NumberOfCells="1024">
            <Points>
                <DataArray type="Float64" Name="Array" NumberOfComponents="3" format="ascii" RangeMin="0" RangeMax="1">0 0 0 0.03125 0 0 0 0.03125 0 0.03125 0.03125 0 0.03125 0 0 0.0625 0 0 0.03125 0.03125 0 0.0625 0.03125 0 0.03125 0.03125 0 0.0625 0.03125 0 0.03125 0.0625 0 0.0625 0.0625 0 0 0.03125 0 0.03125 0.03125 0 0 0.0625 0 0.03125 0.0625 0 0.0625 0 0 0.09375 0 0 0.0625 0.03125 0 0.09375 0.03125 0 0.09375 0 0 0.125 0 0 0.09375 0.03125 0 0.125 0.03125 0 0.09375 0.03125 0 0.125 0.03125 0 0.09375 0.0625 0 0.125 0.0625 0 0.0625 0.03125 0 0.09375 0.03125 0 0.0625 0.0625 0 0.09375 0.0625 0 0.0625 0.0625 0 0.09375 0.0625 0 0.0625 0.09375 0 0.09375 0.09375 0 0.09375 0.0625 0 0.125 0.0625 0 0.09375 0.09375 0 0.125 0.09375 0 0.09375 0.09375 0 0.125 0.09375 0 0.09375 0.125 0 0.125 0.125 0 0.0625 0.09375 0 0.09375 0.09375 0 0.0625 0.125 0 0.09375 0.125 0 0 0.0625 0 0.03125 0.0625 0 0 0.09375 0 0.03125 0.09375 0 0.03125 0.0625 0 0.0625 0.0625 0 0.03125 0.09375 0 0.0625 0.09375 0 0.03125 0.09375 0 0.0625 0.09375 0 0.03125 0.125 0 0.0625 0.125 0 0 0.09375 0 0.03125 0.09375 0 0 0.125 0 0.03125 0.125 0 0.125 0 0 0.15625 0 0 0.125 0.03125 0 0.15625 0.03125 0 0.15625 0 0 0.1875 0 0 0.15625 0.03125 0 0.1875 0.03125 0 0.15625 0.03125 0 0.1875 0.03125 0 0.15625 0.0625 0 0.1875 0.0625 0 0.125 0.03125 0 0.15625 0.03125 0 0.125 0.0625 0 0.15625 0.0625 0 0.1875 0 0 0.21875 0 0 0.1875 0.03125 0 0.21875 0.03125 0 0.21875 0 0 0.25 0 0 0.21875 0.03125 0 0.25 0.03125 0 0.21875 0.03125 0 0.25 0.03125 0 0.21875 0.0625 0 0.25 0.0625 0 0.1875 0.03125 0 0.21875 0.03125 0 0.1875 0.0625 0 0.21875 0.0625 0 0.1875 0.0625 0 0.21875 0.0625 0 0.1875 0.09375 0 0.21875 0.09375 0 0.21875 0.0625 0 0.25 0.0625 0 0.21875 0.09375 0 0.25 0.09375 0 0.21875 0.09375 0 0.25 0.09375 0 0.21875 0.125 0 0.25 0.125 0 0.1875 0.09375 0 0.21875 0.09375 0 0.1875 0.125 0 0.21875 0.125 0 0.125 0.0625 0 0.15625 0.0625 0 0.125 0.09375 0 0.15625 0.09375 0 0.15625 0.0625 0 0.1875 0.0625 0 0.15625 0.09375 0 0.1875 0.09375 0 0.15625 0.09375 0 0.1875 0.09375 0 0.15625 0.125 0 0.1875 0.125 0 0.125 0.09375 0 0.15625 0.09375 0 0.125 0.125 0 0.15625 0.125 0 0.125 0.125 0 0.15625 0.125 0 0.125 0.15625 0 0.15625 0.15625 0 0.15625 0.125 0 0.1875 0.125 0 0.15625 0.15625 0 0.1875 0.15625 0 0.15625 0.15625 0 0.1875 0.15625 0 0.15625 0.1875 0 0.1875 0.1875 0 0.125 0.15625 0 0.15625 0.15625 0 0.125 0.1875 0 0.15625 0.1875 0 0.1875 0.125 0 0.21875 0.125 0 0.1875 0.15625 0 0.21875 0.15625 0 0.21875 0.125 0 0.25 0.125 0 0.21875 0.15625 0 0.25 0.15625 0 0.21875 0.15625 0 0.25 0.15625 0 0.21875 0.1875 0 0.25 0.1875 0 0.1875 0.15625 0 0.21875 0.15625 0 0.1875 0.1875 0 0.21875 0.1875 0 0.1875 0.1875 0 0.21875 0.1875 0 0.1875 0.21875 0 0.21875 0.21875 0 0.21875 0.1875 0 0.25 0.1875 0 0.21875 0.21875 0 0.25 0.21875 0 0.21875 0.21875 0 0.25 0.21875 0 0.21875 0.25 0 0.25 0.25 0 0.1875 0.21875 0 0.21875 0.21875 0 0.1875 0.25 0 0.21875 0.25 0 0.125 0.1875 0 0.15625 0.1875 0 0.125 0.21875 0 0.15625 0.21875 0 0.15625 0.1875 0 0.1875 0.1875 0 0.15625 0.21875 0 0.1875 0.21875 0 0.15625 0.21875 0 0.1875 0.21875 0 0.15625 0.25 0 0.1875 0.25 0 0.125 0.21875 0 0.15625 0.21875 0 0.125 0.25 0 0.15625 0.25 0 0 0.125 0 0.03125 0.125 0 0 0.15625 0 0.03125 0.15625 0 0.03125 0.125 0 0.0625 0.125 0 0.03125 0.15625 0 0.0625 0.15625 0 0.03125 0.15625 0 0.0625 0.15625 0 0.03125 0.1875 0 0.0625 0.1875 0 0 0.15625 0 0.03125 0.15625 0 0 0.1875 0 0.03125 0.1875 0 0.0625 0.125 0 0.09375 0.125 0 0.0625 0.15625 0 0.09375 0.15625 0 0.09375 0.125 0 0.125 0.125 0 0.09375 0.15625 0 0.125 0.15625 0 0.09375 0.15625 0 0.125 0.15625 0 0.09375 0.1875 0 0.125 0.1875 0 0.0625 0.15625 0 0.09375 0.15625 0 0.0625 0.1875 0 0.09375 0.1875 0 0.0625 0.1875 0 0.09375 0.1875 0 0.0625 0.21875 0 0.09375 0.21875 0 0.09375 0.1875 0 0.125 0.1875 0 0.09375 0.21875 0 0.125 0.21875 0 0.09375 0.21875 0 0.125 0.21875 0 0.09375 0.25 0 0.125 0.25 0 0.0625 0.21875 0 0.09375 0.21875 0 0.0625 0.25 0 0.09375 0.25 0 0 0.1875 0 0.03125 0.1875 0 0 0.21875 0 0.03125 0.21875 0 0.03125 0.1875 0 0.0625 0.1875 0 0.03125 0.21875 0 0.0625 0.21875 0 0.03125 0.21875 0 0.0625 0.21875 0 0.03125 0.25 0 0.0625 0.25 0 0 0.21875 0 0.03125 0.21875 0 0 0.25 0 0.03125 0.25 0 0.25 0 0 0.28125 0 0 0.25 0.03125 0 0.28125 0.03125 0 0.28125 0 0 0.3125 0 0 0.28125 0.03125 0 0.3125 0.03125 0 0.28125 0.03125 0 0.3125 0.03125 0 0.28125 0.0625 0 0.3125 0.0625 0 0.25 0.03125 0 0.28125 0.03125 0 0.25 0.0625 0 0.28125 0.0625 0 0.3125 0 0 0.34375 0 0 0.3125 0.03125 0 0.34375 0.03125 0 0.34375 0 0 0.375 0 0 0.34375 0.03125 0 0.375 0.03125 0 0.34375 0.03125 0 0.375 0.03125 0 0.34375 0.0625 0 0.375 0.0625 0 0.3125 0.03125 0 0.34375 0.03125 0 0.3125 0.0625 0 0.34375 0.0625 0 0.3125 0.0625 0 0.34375 0.0625 0 0.3125 0.09375 0 0.34375 0.09375 0 0.34375 0.0625 0 0.375 0.0625 0 0.34375 0.09375 0 0.375 0.09375 0 0.34375 0.09375 0 0.375 0.09375 0 0.34375 0.125 0 0.375 0.125 0 0.3125 0.09375 0 0.34375 0.09375 0 0.3125 0.125 0 0.34375 0.125 0 0.25 0.0625 0 0.28125 0.0625 0 0.25 0.09375 0 0.28125 0.09375 0 0.28125 0.0625 0 0.3125 0.0625 0 0.28125 0.09375 0 0.3125 0.09375 0 0.28125 0.09375 0 0.3125 0.09375 0 0.28125 0.125 0 0.3125 0.125 0 0.25 0.09375 0 0.28125 0.09375 0 0.25 0.125 0 0.28125 0.125 0 0.375 0 0 0.40625 0 0 0.375 0.03125 0 0.40625 0.03125 0 0.40625 0 0 0.4375 0 0 0.40625 0.03125 0 0.4375 0.03125 0 0.40625 0.03125 0 0.4375 0.03125 0 0.40625 0.0625 0 0.4375 0.0625 0 0.375 0.03125 0 0.40625 0.03125 0 0.375 0.0625 0 0.40625 0.0625 0 0.4375 0 0 0.46875 0 0 0.4375 0.03125 0 0.46875 0.03125 0 0.46875 0 0 0.5 0 0 0.46875 0.03125 0 0.5 0.03125 0 0.46875 0.03125 0 0.5 0.03125 0 0.46875 0.0625 0 0.5 0.0625 0 0.4375 0.03125 0 0.46875 0.03125 0 0.4375 0.0625 0 0.46875 0.0625 0 0.4375 0.0625 0 0.46875 0.0625 0 0.4375 0.09375 0 0.46875 0.09375 0 0.46875 0.0625 0 0.5 0.0625 0 0.46875 0.09375 0 0.5 0.09375 0 0.46875 0.09375 0 0.5 0.09375 0 0.46875 0.125 0 0.5 0.125 0 0.4375 0.09375 0 0.46875 0.09375 0 0.4375 0.125 0 0.46875 0.125 0 0.375 0.0625 0 0.40625 0.0625 0 0.375 0.09375 0 0.40625 0.09375 0 0.40625 0.0625 0 0.4375 0.0625 0 0.40625 0.09375 0 0.4375 0.09375 0 0.40625 0.09375 0 0.4375 0.09375 0 0.40625 0.125 0 0.4375 0.125 0 0.375 0.09375 0 0.40625 0.09375 0 0.375 0.125 0 0.40625 0.125 0 0.375 0.125 0 0.40625 0.125 0 0.375 0.15625 0 0.40625 0.15625 0 0.40625 0.125 0 0.4375 0.125 0 0.40625 0.15625 0 0.4375 0.15625 0 0.40625 0.15625 0 0.4375 0.15625 0 0.40625 0.1875 0 0.4375 0.1875 0 0.375 0.15625 0 0.40625 0.15625 0 0.375 0.1875 0 0.40625 0.1875 0 0.4375 0.125 0 0.46875 0.125 0 0.4375 0.15625 0 0.46875 0.15625 0 0.46875 0.125 0 0.5 0.125 0 0.46875 0.15625 0 0.5 0.15625 0 0.46875 0.15625 0 0.5 0.15625 0 0.46875 0.1875 0 0.5 0.1875 0 0.4375 0.15625 0 0.46875 0.15625 0 0.4375 0.1875 0 0.46875 0.1875 0 0.4375 0.1875 0 0.46875 0.1875 0 0.4375 0.21875 0 0.46875 0.21875 0 0.46875 0.1875 0 0.5 0.1875 0 0.46875 0.21875 0 0.5 0.21875 0 0.46875 0.21875 0 0.5 0.21875 0 0.46875 0.25 0 0.5 0.25 0 0.4375 0.21875 0 0.46875 0.21875 0 0.4375 0.25 0 0.46875 0.25 0 0.375 0.1875 0 0.40625 0.1875 0 0.375 0.21875 0 0.40625 0.21875 0 0.40625 0.1875 0 0.4375 0.1875 0 0.40625 0.21875 0 0.4375 0.21875 0 0.40625 0.21875 0 0.4375 0.21875 0 0.40625 0.25 0 0.4375 0.25 0 0.375 0.21875 0 0.40625 0.21875 0 0.375 0.25 0 0.40625 0.25 0 0.25 0.125 0 0.28125 0.125 0 0.25 0.15625 0 0.28125 0.15625 0 0.28125 0.125 0 0.3125 0.125 0 0.28125 0.15625 0 0.3125 0.15625 0 0.28125 0.15625 0 0.3125 0.15625 0 0.28125 0.1875 0 0.3125 0.1875 0 0.25 0.15625 0 0.28125 0.15625 0 0.25 0.1875 0 0.28125 0.1875 0 0.3125 0.125 0 0.34375 0.125 0 0.3125 0.15625 0 0.34375 0.15625 0 0.34375 0.125 0 0.375 0.125 0 0.34375 0.15625 0 0.375 0.15625 0 0.34375 0.15625 0 0.375 0.15625 0 0.34375 0.1875 0 0.375 0.1875 0 0.3125 0.15625 0 0.34375 0.15625 0 0.3125 0.1875 0 0.34375 0.1875 0 0.3125 0.1875 0 0.34375 0.1875 0 0.3125 0.21875 0 0.34375 0.21875 0 0.34375 0.1875 0 0.375 0.1875 0 0.34375 0.21875 0 0.375 0.21875 0 0.34375 0.21875 0 0.375 0.21875 0 0.34375 0.25 0 0.375 0.25 0 0.3125 0.21875 0 0.34375 0.21875 0 0.3125 0.25 0 0.34375 0.25 0 0.25 0.1875 0 0.28125 0.1875 0 0.25 0.21875 0 0.28125 0.21875 0 0.28125 0.1875 0 0.3125 0.1875 0 0.28125 0.21875 0 0.3125 0.21875 0 0.28125 0.21875 0 0.3125 0.21875 0 0.28125 0.25 0 0.3125 0.25 0 0.25 0.21875 0 0.28125 0.21875 0 0.25 0.25 0 0.28125 0.25 0 0.25 0.25 0 0.28125 0.25 0 0.25 0.28125 0 0.28125 0.28125 0 0.28125 0.25 0 0.3125 0.25 0 0.28125 0.28125 0 0.3125 0.28125 0 0.28125 0.28125 0 0.3125 0.28125 0 0.28125 0.3125 0 0.3125 0.3125 0 0.25 0.28125 0 0.28125 0.28125 0 0.25 0.3125 0 0.28125 0.3125 0 0.3125 0.25 0 0.34375 0.25 0 0.3125 0.28125 0 0.34375 0.28125 0 0.34375 0.25 0 0.375 0.25 0 0.34375 0.28125 0 0.375 0.28125 0 0.34375 0.28125 0 0.375 0.28125 0 0.34375 0.3125 0 0.375 0.3125 0 0.3125 0.28125 0 0.34375 0.28125 0 0.3125 0.3125 0 0.34375 0.3125 0 0.3125 0.3125 0 0.34375 0.3125 0 0.3125 0.34375 0 0.34375 0.34375 0 0.34375 0.3125 0 0.375 0.3125 0 0.34375 0.34375 0 0.375 0.34375 0 0.34375 0.34375 0 0.375 0.34375 0 0.34375 0.375 0 0.375 0.375 0 0.3125 0.34375 0 0.34375 0.34375 0 0.3125 0.375 0 0.34375 0.375 0 0.25 0.3125 0 0.28125 0.3125 0 0.25 0.34375 0 0.28125 0.34375 0 0.28125 0.3125 0 0.3125 0.3125 0 0.28125 0.34375 0 0.3125 0.34375 0 0.28125 0.34375 0 0.3125 0.34375 0 0.28125 0.375 0 0.3125 0.375 0 0.25 0.34375 0 0.28125 0.34375 0 0.25 0.375 0 0.28125 0.375 0 0.375 0.25 0 0.40625 0.25 0 0.375 0.28125 0 0.40625 0.28125 0 0.40625 0.25 0 0.4375 0.25 0 0.40625 0.28125 0 0.4375 0.28125 0 0.40625 0.28125 0 0.4375 0.28125 0 0.40625 0.3125 0 0.4375 0.3125 0 0.375 0.28125 0 0.40625 0.28125 0 0.375 0.3125 0 0.40625 0.3125 0 0.4375 0.25 0 0.46875 0.25 0 0.4375 0.28125 0 0.46875 0.28125 0 0.46875 0.25 0 0.5 0.25 0 0.46875 0.28125 0 0.5 0.28125 0 0.46875 0.28125 0 0.5 0.28125 0 0.46875 0.3125 0
[...]
            <PointData>
                <DataArray Name="u" type="Float64" format="ascii">0 0 0 0.00219076 0 0 0.00219076 -0.00262302 0.00219076 -0.00262302 -0.00262302 0.00234922 0 0.00219076 0 -0.00262302 0 0 -0.00262302 0.0043986 0 0 0.0043986 -0.00484078 0.0043986 -0.00484078 -0.00392888 0.0099014 -0.00262302 0.0043986 0.00234922 -0.00392888 0.00234922 -0.00392888 -0.00392888 0.0158656 -0.00392888 0.0099014 0.0158656 0.05654 0.0158656 0.05654 0.05654 0.112004 -0.00392888 0.0158656 0.0099014 0.05654 0 -0.00262302 0 0.0043986 -0.00262302 0.00234922 0.0043986 -0.00392888 0.0043986 -0.00392888 -0.00484078 0.0099014 0 0.0043986 0 -0.00484078 0 0 -0.00484078 -0.00348283 0 0 -0.00348283 0.0106283 -0.00348283 0.0106283 0.0380013 0.0673505 -0.00484078 -0.00348283 0.0099014 0.0380013 0 0 0.0106283 0.0246628 0 0 0.0246628 0.0316913 0.0246628 0.0316913 0.0900272 0.102741 0.0106283 0.0246628 0.0673505 0.0900272 0.0673505 0.0900272 0.136828 0.162464 0.0900272 0.102741 0.162464 0.176494 0.162464 0.176494 0.2278 0.242507 0.136828 0.162464 0.200122 0.2278 0.0099014 0.0380013 0.05654 0.100477 0.0380013 0.0673505 0.100477 0.136828 0.100477 0.136828 0.161085 0.200122 0.05654 0.100477 0.112004 0.161085 0.112004 0.161085 0.161085 0.212993 0.161085 0.200122 0.212993 0.25436 0.212993 0.25436 0.25436 0.297661 0.161085 0.212993 0.200122 0.25436 0.200122 0.2278 0.25436 0.283545 0.2278 0.242507 0.283545 0.299487 0.283545 0.299487 0.328019 0.34476 0.25436 0.283545 0.297661 0.328019 0.297661 0.328019 0.328019 0.359448 0.328019 0.34476 0.359448 0.376536 0.359448 0.376536 0.376536 0.3938 0.328019 0.359448 0.34476 0.376536 0.200122 0.25436 0.2278 0.283545 0.25436 0.297661 0.283545 0.328019 0.283545 0.328019 0.299487 0.34476 0.2278 0.283545 0.242507 0.299487 0 -0.00484078 0 -0.00348283 -0.00484078 0.0099014 -0.00348283 0.0380013 -0.00348283 0.0380013 0.0106283 0.0673505 0 -0.00348283 0 0.0106283 0.0099014 0.05654 0.0380013 0.100477 0.05654 0.112004 0.100477 0.161085 0.100477 0.161085 0.136828 0.200122 0.0380013 0.100477 0.0673505 0.136828 0.0673505 0.136828 0.0900272 0.162464 0.136828 0.200122 0.162464 0.2278 0.162464 0.2278 0.176494 0.242507 0.0900272 0.162464 0.102741 0.176494 0 0.0106283 0 0.0246628 0.0106283 0.0673505 0.0246628 0.0900272 0.0246628 0.0900272 0.0316913 0.102741 0 0.0246628 0 0.0316913 0 0 0.0316913 0.0327798 0 0 0.0327798 0.0224388 0.0327798 0.0224388 0.103848 0.0943134 0.0316913 0.0327798 0.102741 0.103848 0 0 0.0224388 0.0126259 0 0 0.0126259 -0.0112331 0.0126259 -0.0112331 0.071595 0.0446028 0.0224388 0.0126259 0.0943134 0.071595 0.0943134 0.071595 0.167283 0.144719 0.071595 0.0446028 0.144719 0.109694 0.144719 0.109694 0.209444 0.170767 0.167283 0.144719 0.232277 0.209444 0.102741 0.103848 0.176494 0.178046 0.103848 0.0943134 0.178046 0.167283 0.178046 0.167283 0.244686 0.232277 0.176494 0.178046 0.242507 0.244686 0 0 -0.0112331 -0.00411208 0 0 -0.00411208 0.00221216 -0.00411208 0.00221216 0.000447061 -0.00451599 -0.0112331 -0.00411208 0.0446028 0.000447061 0 0 0.00221216 0.000204447 0 0 0.000204447 6.49688e-05 0.000204447 6.49688e-05 0.000686558 -0.000256218 0.00221216 0.000204447 -0.00451599 0.000686558 -0.00451599 0.000686558 0.00826698 -0.00293816 0.000686558 -0.000256218 -0.00293816 0.00091641 -0.00293816 0.00091641 0.00515566 -0.00285696 0.00826698 -0.00293816 0.0690218 0.00515566 0.0446028 0.000447061 0.109694 0.0692135 0.000447061 -0.00451599 0.0692135 0.00826698 0.0692135 0.00826698 0.127702 0.0690218 0.109694 0.0692135 0.170767 0.127702 0.170767 0.127702 0.226789 0.172037 0.127702 0.0690218 0.172037 0.12391 0.172037 0.12391 0.213784 0.15658 0.226789 0.172037 0.26847 0.213784 0.0690218 0.00515566 0.12391 0.0416651 0.00515566 -0.00285696 0.0416651 0.000861954 0.0416651 0.000861954 0.0856008 0.0112258 0.12391 0.0416651 0.15658 0.0856008 0.15658 0.0856008 0.17894 0.115278 0.0856008 0.0112258 0.115278 0.0271336 0.115278 0.0271336 0.130075 0.0386698 0.17894 0.115278 0.192136 0.130075 0.26847 0.213784 0.296439 0.244854 0.213784 0.15658 0.244854 0.17894 0.244854 0.17894 0.261082 0.192136 0.296439 0.244854 0.312557 0.261082 0.242507 0.244686 0.299487 0.301141 0.244686 0.232277 0.301141 0.28947 0.301141 0.28947 0.346337 0.334392 0.299487 0.301141 0.34476 0.346337 0.232277 0.209444 0.28947 0.262469 0.209444 0.170767 0.262469 0.226789 0.262469 0.226789 0.306256 0.26847 0.28947 0.262469 0.334392 0.306256 0.334392 0.306256 0.365537 0.338168 0.306256 0.26847 0.338168 0.296439 0.338168 0.296439 0.355117 0.312557 0.365537 0.338168 0.382646 0.355117 0.34476 0.346337 0.376536 0.378625 0.346337 0.334392 0.378625 0.365537 0.378625 0.365537 0.395953 0.382646 0.376536 0.378625 0.3938 0.395953 0.3938 0.395953 0.395953 0.398516 0.395953 0.382646 0.398516 0.384606 0.398516 0.384606 0.384606 0.371926 0.395953 0.398516 0.382646 0.384606 0.382646 0.355117 0.384606 0.357875 0.355117 0.312557 0.357875 0.313599 0.357875 0.313599 0.344075 0.303604 0.384606 0.357875 0.371926 0.344075 0.371926 0.344075 0.344075 0.31872 0.344075 0.303604 0.31872 0.274489 0.31872 0.274489 0.274489 0.244319 0.344075 0.31872 0.303604 0.274489 0.382646 0.384606 0.355117 0.357875 0.384606 0.371926 0.357875 0.344075 0.357875 0.344075 0.313599 0.303604 0.355117 0.357875 0.312557 0.313599 0.312557 0.261082 0.313599 0.26353 0.261082 0.192136 0.26353 0.194254 0.26353 0.194254 0.250783 0.184027 0.313599 0.26353 0.303604 0.250783 0.192136 0.130075 0.194254 0.131044 0.130075 0.0386698 0.131044 0.0419291 0.131044 0.0419291 0.121138 0.032711 0.194254 0.131044 0.184027 0.121138 0.184027 0.121138 0.162594 0.0960041 0.121138 0.032711 0.0960041 0.0236048 0.0960041 0.0236048 0.056798 0.0110087 0.162594 0.0960041 0.13533 0.056798 0.303604 0.250783 0.274489 0.227125 0.250783 0.184027 0.227125 0.162594 0.227125 0.162594 0.183449 0.13533 0.274489 0.227125 0.244319 0.183449 0.244319 0.183449 0.183449 0.143411 0.183449 0.13533 0.143411 0.0856356 0.143411 0.0856356 0.0856356 0.0316744 0.183449 0.143411 0.13533 0.0856356 0.13533 0.056798 0.0856356 0.0246849 0.056798 0.0110087 0.0246849 0.00233677 0.0246849 0.00233677 0.00621098 0.000178361 0.0856356 0.0246849 0.0316744 0.00621098 0.0316744 0.00621098 0.00621098 0.000485869 0.00621098 0.000178361 0.000485869 1.62635e-05 0.000485869 1.62635e-05 1.62635e-05 -7.5914e-06 0.00621098 0.000485869 0.000178361 1.62635e-05 0.13533 0.0856356 0.056798 0.0246849 0.0856356 0.0316744 0.0246849 0.00621098 0.0246849 0.00621098 0.00233677 0.000178361 0.056798 0.0246849 0.0110087 0.00233677 0.312557 0.313599 0.261082 0.26353 0.313599 0.303604 0.26353 0.250783 0.26353 0.250783 0.194254 0.184027 0.261082 0.26353 0.192136 0.194254 0.303604 0.274489 0.250783 0.227125 0.274489 0.244319 0.227125 0.183449 0.227125 0.183449 0.162594 0.13533 0.250783 0.227125 0.184027 0.162594 0.184027 0.162594 0.121138 0.0960041 0.162594 0.13533 0.0960041 0.056798 0.0960041 0.056798 0.0236048 0.0110087 0.121138 0.0960041 0.032711 0.0236048 0.192136 0.194254 0.130075 0.131044 0.194254 0.184027 0.131044 0.121138 0.131044 0.121138 0.0419291 0.032711 0.130075 0.131044 0.0386698 0.0419291 0 0.0316913 0 0.0327798 0.0316913 0.102741 0.0327798 0.103848 0.0327798 0.103848 0.0224388 0.0943134 0 0.0327798 0 0.0224388 0.102741 0.176494 0.103848 0.178046 0.176494 0.242507 0.178046 0.244686 0.178046 0.244686 0.167283 0.232277 0.103848 0.178046 0.0943134 0.167283 0.0943134 0.167283 0.071595 0.144719 0.167283 0.232277 0.144719 0.209444 0.144719 0.209444 0.109694 0.170767 0.071595 0.144719 0.0446028 0.109694 0 0.0224388 0 0.0126259 0.0224388 0.0943134 0.0126259 0.071595 0.0126259 0.071595 -0.0112331 0.0446028 0 0.0126259 0 -0.0112331 0.242507 0.299487 0.244686 0.301141 0.299487 0.34476 0.301141 0.346337 0.301141 0.346337 0.28947 0.334392 0.244686 0.301141 0.232277 0.28947 0.34476 0.376536 0.346337 0.378625 0.376536 0.3938 0.378625 0.395953 0.378625 0.395953 0.365537 0.382646 0.346337 0.378625 0.334392 0.365537 0.334392 0.365537 0.306256 0.338168 0.365537 0.382646 0.338168 0.355117 0.338168 0.355117 0.296439 0.312557 0.306256 0.338168 0.26847 0.296439 0.232277 0.28947 0.209444 0.262469 0.28947 0.334392 0.262469 0.306256 0.262469 0.306256 0.226789 0.26847 0.209444 0.262469 0.170767 0.226789 0.170767 0.226789 0.127702 0.172037 0.226789 0.26847 0.172037 0.213784 0.172037 0.213784 0.12391 0.15658 0.127702 0.172037 0.0690218 0.12391 0.26847 0.296439 0.213784 0.244854 0.296439 0.312557 0.244854 0.261082 0.244854 0.261082 0.17894 0.192136 0.213784 0.244854 0.15658 0.17894 0.15658 0.17894 0.0856008 0.115278 0.17894 0.192136 0.115278 0.130075 0.115278 0.130075 0.0271336 0.0386698 0.0856008 0.115278 0.0112258 0.0271336 0.0690218 0.12391 0.00515566 0.0416651 0.12391 0.15658 0.0416651 0.0856008 0.0416651 0.0856008 0.000861954 0.0112258 0.00515566 0.0416651 -0.00285696 0.000861954 0 -0.0112331 0 -0.00411208 -0.0112331 0.0446028 -0.00411208 0.000447061 -0.00411208 0.000447061 0.00221216 -0.00451599 0 -0.00411208 0 0.00221216 0.0446028 0.109694 0.000447061 0.0692135 0.109694 0.170767 0.0692135 0.127702 0.0692135 0.127702 0.00826698 0.0690218 0.000447061 0.0692135 -0.00451599 0.00826698 -0.00451599 0.00826698 0.000686558 -0.00293816 0.00826698 0.0690218 -0.00293816 0.00515566 -0.00293816 0.00515566 0.00091641 -0.00285696 0.000686558 -0.00293816 -0.000256218 0.00091641 0 0.00221216 0 0.000204447 0.00221216 -0.00451599 0.000204447 0.000686558 0.000204447 0.000686558 6.49688e-05 -0.000256218 0 0.000204447 0 6.49688e-05 0 0 6.49688e-05 0.000113706 0 0 0.000113706 1.7585e-06 0.000113706 1.7585e-06 -0.000201137 1.61092e-05 6.49688e-05 0.000113706 -0.000256218 -0.000201137 0 0 1.7585e-06 -3.66073e-06 0 0 -3.66073e-06 7.37718e-07 -3.66073e-06 7.37718e-07 2.95148e-06 -1.21788e-06 1.7585e-06 -3.66073e-06 1.61092e-05 2.95148e-06 1.61092e-05 2.95148e-06 -4.64762e-05 2.54603e-06 2.95148e-06 -1.21788e-06 2.54603e-06 7.89135e-07 2.54603e-06 7.89135e-07 -1.36e-05 2.15426e-06 -4.64762e-05 2.54603e-06 5.60272e-05 -1.36e-05 -0.000256218 -0.000201137 0.00091641 0.000265889 -0.000201137 1.61092e-05 0.000265889 -4.64762e-05 0.000265889 -4.64762e-05 -3.72359e-05 5.60272e-05 0.00091641 0.000265889 -0.00285696 -3.72359e-05 0 0 7.37718e-07 -6.76046e-08 0 0 -6.76046e-08 -6.46661e-09 -6.76046e-08 -6.46661e-09 2.33153e-07 -2.57992e-08 7.37718e-07 -6.76046e-08 -1.21788e-06 2.33153e-07 0 0 -6.46661e-09 4.49796e-09 0 0 4.49796e-09 -1.2358e-09 4.49796e-09 -1.2358e-09 -6.46549e-10 1.29421e-09 -6.46661e-09 4.49796e-09 -2.57992e-08 -6.46549e-10 -2.57992e-08 -6.46549e-10 7.44727e-08 -1.24407e-08 -6.46549e-10 1.29421e-09 -1.24407e-08 1.31066e-09 -1.24407e-08 1.31066e-09 2.32016e-08 -7.05076e-09 7.44727e-08 -1.24407e-08 -4.12615e-08 2.32016e-08 -1.21788e-06 2.33153e-07 7.89135e-07 -3.23238e-07 2.33153e-07 -2.57992e-08 -3.23238e-07 7.44727e-08 -3.23238e-07 7.44727e-08 -1.58184e-07 -4.12615e-08 7.89135e-07 -3.23238e-07 2.15426e-06 -1.58184e-07 2.15426e-06 -1.58184e-07 -1.82513e-06 9.86923e-07 -1.58184e-07 -4.12615e-08 9.86923e-07 -2.4588e-07 9.86923e-07 -2.4588e-07 2.21345e-06 -1.18589e-07 -1.82513e-06 9.86923e-07 -1.45724e-05 2.21345e-06 -4.12615e-08 2.32016e-08 -2.4588e-07 4.06893e-08 2.32016e-08 -7.05076e-09 4.06893e-08 -3.23278e-09 4.06893e-08 -3.23278e-09 -5.54025e-08 2.59186e-08 -2.4588e-07 4.06893e-08 -1.18589e-07 -5.54025e-08 -1.18589e-07 -5.54025e-08 4.6277e-07 -1.47062e-07 -5.54025e-08 2.59186e-08 -1.47062e-07 3.2362e-08 -1.47062e-07 3.2362e-08 -1.44139e-07 1.69875e-08 4.6277e-07 -1.47062e-07 8.09067e-07 -1.44139e-07 -1.45724e-05 2.21345e-06 -1.11723e-05 -1.44874e-07 2.21345e-06 -1.18589e-07 -1.44874e-07 4.6277e-07 -1.44874e-07 4.6277e-07 -2.96258e-06 8.09067e-07 -1.11723e-05 -1.44874e-07 1.39013e-06 -2.96258e-06 -0.00285696 -3.72359e-05 0.000861954 -0.00056045 -3.72359e-05 5.60272e-05 -0.00056045 0.000117262 -0.00056045 0.000117262 -0.00163841 -1.35886e-05 0.000861954 -0.00056045 0.0112258 -0.00163841 5.60272e-05 -1.36e-05 0.000117262 -9.98616e-06 -1.36e-05 2.15426e-06 -9.98616e-06 -1.82513e-06 -9.98616e-06 -1.82513e-06 5.57826e-05 -1.45724e-05 0.000117262 -9.98616e-06 -1.35886e-05 5.57826e-05 -1.35886e-05 5.57826e-05 -0.000385897 9.42957e-05 5.57826e-05 -1.45724e-05 9.42957e-05 -1.11723e-05 9.42957e-05 -1.11723e-05 8.07087e-05 1.39013e-06 -0.000385897 9.42957e-05 -0.000673032 8.07087e-05 0.0112258 -0.00163841 0.0271336 -0.000658562 -0.00163841 -1.35886e-05 -0.000658562 -0.000385897 -0.000658562 -0.000385897 0.00135092 -0.000673032 0.0271336 -0.000658562 0.0386698 0.00135092 0 0 -1.2358e-09 2.57131e-10 0 0 2.57131e-10 -4.11159e-11 2.57131e-10 -4.11159e-11 -4.3436e-10 1.12961e-10 -1.2358e-09 2.57131e-10 1.29421e-09 -4.3436e-10 0 0 -4.11159e-11 6.32471e-12 0 0 6.32471e-12 -1.82687e-14 6.32471e-12 -1.82687e-14 -2.15092e-11 5.21231e-12 -4.11159e-11 6.32471e-12 1.12961e-10 -2.15092e-11 1.12961e-10 -2.15092e-11 -8.38936e-11 3.3236e-11 -2.15092e-11 5.21231e-12 3.3236e-11 -7.73252e-12 3.3236e-11 -7.73252e-12 6.09135e-11 -7.75068e-12 -8.38936e-11 3.3236e-11 -3.40126e-10 6.09135e-11 1.29421e-09 -4.3436e-10 1.31066e-09 7.43629e-11 -4.3436e-10 1.12961e-10 7.43629e-11 -8.38936e-11 7.43629e-11 -8.38936e-11 1.69279e-09 -3.40126e-10 1.31066e-09 7.43629e-11 -7.05076e-09 1.69279e-09 0 0 -1.82687e-14 1.63455e-13 0 0 1.63455e-13 1.14764e-13 1.63455e-13 1.14764e-13 -2.70719e-13 2.93175e-13 -1.82687e-14 1.63455e-13 5.21231e-12 -2.70719e-13 0 0 1.14764e-13 2.62992e-14 0 0 2.62992e-14 0 2.62992e-14 0 7.33847e-14 0 1.14764e-13 2.62992e-14 2.93175e-13 7.33847e-14 2.93175e-13 7.33847e-14 -2.51207e-13 1.70564e-13 7.33847e-14 0 1.70564e-13 0 1.70564e-13 0 2.03408e-14 0 -2.51207e-13 1.70564e-13 1.97536e-13 2.03408e-14 5.21231e-12 -2.70719e-13 -7.73252e-12 2.5183e-12 -2.70719e-13 2.93175e-13 2.5183e-12 -2.51207e-13 2.5183e-12 -2.51207e-13 1.13017e-12 1.97536e-13 -7.73252e-12 2.5183e-12 -7.75068e-12 1.13017e-12 -7.75068e-12 1.13017e-12 4.08699e-11 -9.18694e-12 1.13017e-12 1.97536e-13 -9.18694e-12 2.11636e-12 -9.18694e-12 2.11636e-12 -1.13267e-11 1.84231e-12 4.08699e-11 -9.18694e-12 6.75582e-11 -1.13267e-11 1.97536e-13 2.03408e-14 2.11636e-12 -3.32913e-13 2.03408e-14 0 -3.32913e-13 0 -3.32913e-13 0 -2.02008e-13 0 2.11636e-12 -3.32913e-13 1.84231e-12 -2.02008e-13 1.84231e-12 -2.02008e-13 -1.5702e-12 3.85925e-13 -2.02008e-13 0 3.85925e-13 0 3.85925e-13 0 3.88462e-13 0 -1.5702e-12 3.85925e-13 -2.23525e-12 3.88462e-13 6.75582e-11 -1.13267e-11 -8.79925e-12 5.4384e-12 -1.13267e-11 1.84231e-12 5.4384e-12 -1.5702e-12 5.4384e-12 -1.5702e-12 1.17102e-11 -2.23525e-12 -8.79925e-12 5.4384e-12 -5.3263e-11 1.17102e-11 -7.05076e-09 1.69279e-09 -3.23278e-09 -7.54067e-10 1.69279e-09 -3.40126e-10 -7.54067e-10 4.67103e-10 -7.54067e-10 4.67103e-10 -7.42908e-09 1.74279e-09 -3.23278e-09 -7.54067e-10 2.59186e-08 -7.42908e-09 -3.40126e-10 6.09135e-11 4.67103e-10 -1.51799e-10 6.09135e-11 -7.75068e-12 -1.51799e-10 4.08699e-11 -1.51799e-10 4.08699e-11 -3.58908e-10 6.75582e-11 4.67103e-10 -1.51799e-10 1.74279e-09 -3.58908e-10 1.74279e-09 -3.58908e-10 7.52677e-10 -5.39262e-11 -3.58908e-10 6.75582e-11 -5.39262e-11 -8.79925e-12 -5.39262e-11 -8.79925e-12 2.05834e-10 -5.3263e-11 7.52677e-10 -5.39262e-11 -5.44774e-10 2.05834e-10 2.59186e-08 -7.42908e-09 3.2362e-08 -5.62656e-09 -7.42908e-09 1.74279e-09 -5.62656e-09 7.52677e-10 -5.62656e-09 7.52677e-10 -2.99412e-10 -5.44774e-10 3.2362e-08 -5.62656e-09 1.69875e-08 -2.99412e-10 1.69875e-08 -2.99412e-10 -1.90804e-09 2.48808e-09 -2.99412e-10 -5.44774e-10 2.48808e-09 -7.04641e-10 2.48808e-09 -7.04641e-10 -3.25759e-09 9.46768e-10 -1.90804e-09 2.48808e-09 9.79596e-09 -3.25759e-09 -5.44774e-10 2.05834e-10 -7.04641e-10 1.40193e-10 2.05834e-10 -5.3263e-11 1.40193e-10 -2.12453e-11 1.40193e-10 -2.12453e-11 -2.41774e-10 5.55968e-11 -7.04641e-10 1.40193e-10 9.46768e-10 -2.41774e-10 9.46768e-10 -2.41774e-10 9.67449e-10 -1.66513e-10 -2.41774e-10 5.55968e-11 -1.66513e-10 2.47214e-11 -1.66513e-10 2.47214e-11 5.04267e-11 -1.35934e-11 9.67449e-10 -1.66513e-10 -1.21441e-10 5.04267e-11 9.79596e-09 -3.25759e-09 2.15252e-08 -4.91691e-09 -3.25759e-09 9.46768e-10 -4.91691e-09 9.67449e-10 -4.91691e-09 9.67449e-10 -1.35819e-10 -1.21441e-10 2.15252e-08 -4.91691e-09 3.93389e-09 -1.35819e-10 -5.3263e-11 1.17102e-11 -2.12453e-11 2.19902e-12 1.17102e-11 -2.23525e-12 2.19902e-12 4.52441e-14 2.19902e-12 4.52441e-14 -1.16629e-11 2.27706e-12 -2.12453e-11 2.19902e-12 5.55968e-11 -1.16629e-11 -2.23525e-12 3.88462e-13 4.52441e-14 -7.74006e-14 3.88462e-13 0 -7.74006e-14 0 -7.74006e-14 0 -3.85321e-13 0 4.52441e-14 -7.74006e-14 2.27706e-12 -3.85321e-13 2.27706e-12 -3.85321e-13 1.9059e-13 2.96345e-14 -3.85321e-13 0 2.96345e-14 0 2.96345e-14 0 9.37144e-14 0 1.9059e-13 2.96345e-14 -5.73912e-13 9.37144e-14 5.55968e-11 -1.16629e-11 2.47214e-11 -2.91003e-12 -1.16629e-11 2.27706e-12 -2.91003e-12 1.9059e-13 -2.91003e-12 1.9059e-13 3.01296e-12 -5.73912e-13 2.47214e-11 -2.91003e-12 -1.35934e-11 3.01296e-12 -1.35934e-11 3.01296e-12 -3.04486e-12 1.15676e-13 3.01296e-12 -5.73912e-13 1.15676e-13 6.77646e-14 1.15676e-13 6.77646e-14 -6.69042e-13 1.09526e-13 -3.04486e-12 1.15676e-13 3.58903e-12 -6.69042e-13 -5.73912e-13 9.37144e-14 6.77646e-14 -2.39293e-14 9.37144e-14 0 -2.39293e-14 0 -2.39293e-14 0 -1.38641e-14 0 6.77646e-14 -2.39293e-14 1.09526e-13 -1.38641e-14 1.09526e-13 -1.38641e-14 -6.58496e-14 1.29097e-14 -1.38641e-14 0 1.29097e-14 0 1.29097e-14 0 -4.50011e-15 0 -6.58496e-14 1.29097e-14 1.74881e-14 -4.50011e-15 3.58903e-12 -6.69042e-13 -1.02968e-12 2.87495e-13 -6.69042e-13 1.09526e-13 2.87495e-13 -6.58496e-14 2.87495e-13 -6.58496e-14 -4.26793e-14 1.74881e-14 -1.02968e-12 2.87495e-13 3.24753e-15 -4.26793e-14 3.93389e-09 -1.35819e-10 -3.84622e-09 9.02253e-10 -1.35819e-10 -1.21441e-10 9.02253e-10 -1.71824e-10 9.02253e-10 -1.71824e-10 -1.73681e-10 6.34141e-11 -3.84622e-09 9.02253e-10 8.79688e-11 -1.73681e-10 -1.21441e-10 5.04267e-11 -1.71824e-10 2.66785e-11 5.04267e-11 -1.35934e-11 2.66785e-11 -3.04486e-12 2.66785e-11 -3.04486e-12 -1.65556e-11 3.58903e-12 -1.71824e-10 2.66785e-11 6.34141e-11 -1.65556e-11 6.34141e-11 -1.65556e-11 -1.21868e-13 2.61941e-12 -1.65556e-11 3.58903e-12 2.61941e-12 -1.02968e-12 2.61941e-12 -1.02968e-12 8.46873e-13 3.24753e-15 -1.21868e-13 2.61941e-12 -6.61452e-12 8.46873e-13 8.79688e-11 -1.73681e-10 3.86271e-10 -5.09164e-11 -1.73681e-10 6.34141e-11 -5.09164e-11 -1.21868e-13 -5.09164e-11 -1.21868e-13 3.38109e-11 -6.61452e-12 3.86271e-10 -5.09164e-11 -1.22028e-10 3.38109e-11 0.0386698 0.00135092 0.0419291 0.0031559 0.00135092 -0.000673032 0.0031559 -0.00069773 0.0031559 -0.00069773 0.00191743 -0.000407543 0.0419291 0.0031559 0.032711 0.00191743 -0.000673032 8.07087e-05 -0.00069773 3.12171e-05 8.07087e-05 1.39013e-06 3.12171e-05 1.17611e-05 3.12171e-05 1.17611e-05 2.71115e-05 1.27604e-06 -0.00069773 3.12171e-05 -0.000407543 2.71115e-05 -0.000407543 2.71115e-05 -0.000289522 5.27544e-05 2.71115e-05 1.27604e-06 5.27544e-05 -6.76046e-06 5.27544e-05 -6.76046e-06 2.37158e-05 -1.88954e-06 -0.000289522 5.27544e-05 -0.000131002 2.37158e-05 0.032711 0.00191743 0.0236048 0.000440881 0.00191743 -0.000407543 0.000440881 -0.000289522 0.000440881 -0.000289522 7.37172e-06 -0.000131002 0.0236048 0.000440881 0.0110087 7.37172e-06 1.39013e-06 -2.96258e-06 1.17611e-05 -3.69039e-06 -2.96258e-06 8.09067e-07 -3.69039e-06 6.20041e-07 -3.69039e-06 6.20041e-07 -5.98699e-07 1.15374e-07 1.17611e-05 -3.69039e-06 1.27604e-06 -5.98699e-07 8.09067e-07 -1.44139e-07 6.20041e-07 -6.00802e-08 -1.44139e-07 1.69875e-08 -6.00802e-08 -1.90804e-09 -6.00802e-08 -1.90804e-09 -2.8698e-08 9.79596e-09 6.20041e-07 -6.00802e-08 1.15374e-07 -2.8698e-08 1.15374e-07 -2.8698e-08 1.66491e-07 -7.60658e-08 -2.8698e-08 9.79596e-09 -7.60658e-08 2.15252e-08 -7.60658e-08 2.15252e-08 -2.83979e-08 3.93389e-09 1.66491e-07 -7.60658e-08 1.26792e-07 -2.83979e-08 1.27604e-06 -5.98699e-07 -6.76046e-06 3.19266e-07 -5.98699e-07 1.15374e-07 3.19266e-07 1.66491e-07 3.19266e-07 1.66491e-07 -2.36928e-07 1.26792e-07 -6.76046e-06 3.19266e-07 -1.88954e-06 -2.36928e-07 -1.88954e-06 -2.36928e-07 8.30725e-07 -9.59891e-08 -2.36928e-07 1.26792e-07 -9.59891e-08 -1.69724e-08 -9.59891e-08 -1.69724e-08 8.77238e-08 -2.08202e-08 8.30725e-07 -9.59891e-08 -1.53789e-07 8.77238e-08 1.2679