<?xml version="1.0" encoding="UTF-8"?>
<VTKFile type="UnstructuredGrid" version="0.1" byte_order="LittleEndian" compressor="vtkZLibDataCompressor">
    <UnstructuredGrid>
        <Piece NumberOfPoints="4096" NumberOfCells="1024">
            <Points>
                <DataArray type="Float64" Name="Array" NumberOfComponents="3" format="ascii" RangeMin="0" RangeMax="1">0 0 0 0.03125 0 0 0 0.03125 0 0.03125 0.03125 0 0.03125 0 0 0.0625 0 0 0.03125 0.03125 0 0.0625 0.03125 0 0.03125 0.03125 0 0.0625 0.03125 0 0.03125 0.0625 0 0.0625 0.0625 0 0 0.03125 0 0.03125 0.03125 0 0 0.0625 0 0.03125 0.0625 0 0.0625 0 0 0.09375 0 0 0.0625 0.03125 0 0.09375 0.03125 0 0.09375 0 0 0.125 0 0 0.09375 0.03125 0 0.125 0.03125 0 0.09375 0.03125 0 0.125 0.03125 0 0.09375 0.0625 0 0.125 0.0625 0 0.0625 0.03125 0 0.09375 0.03125 0 0.0625 0.0625 0 0.09375 0.0625 0 0.0625 0.0625 0 0.09375 0.0625 0 0.0625 0.09375 0 0.09375 0.09375 0 0.09375 0.0625 0 0.125 0.0625 0 0.09375 0.09375 0 0.125 0.09375 0 0.09375 0.09375 0 0.125 0.09375 0 0.09375 0.125 0 0.125 0.125 0 0.0625 0.09375 0 0.09375 0.09375 0 0.0625 0.125 0 0.09375 0.125 0 0 0.0625 0 0.03125 0.0625 0 0 0.09375 0 0.03125 0.09375 0 0.03125 0.0625 0 0.0625 0.0625 0 0.03125 0.09375 0 0.0625 0.09375 0 0.03125 0.09375 0 0.0625 0.09375 0 0.03125 0.125 0 0.0625 0.125 0 0 0.09375 0 0.03125 0.09375 0 0 0.125 0 0.03125 0.125 0 0.125 0 0 0.15625 0 0 0.125 0.03125 0 0.15625 0.03125 0 0.15625 0 0 0.1875 0 0 0.15625 0.03125 0 0.1875 0.03125 0 0.15625 0.03125 0 0.1875 0.03125 0 0.15625 0.0625 0 0.1875 0.0625 0 0.125 0.03125 0 0.15625 0.03125 0 0.125 0.0625 0 0.15625 0.0625 0 0.1875 0 0 0.21875 0 0 0.1875 0.03125 0 0.21875 0.03125 0 0.21875 0 0 0.25 0 0 0.21875 0.03125 0 0.25 0.03125 0 0.21875 0.03125 0 0.25 0.03125 0 0.21875 0.0625 0 0.25 0.0625 0 0.1875 0.03125 0 0.21875 0.03125 0 0.1875 0.0625 0 0.21875 0.0625 0 0.1875 0.0625 0 0.21875 0.0625 0 0.1875 0.09375 0 0.21875 0.09375 0 0.21875 0.0625 0 0.25 0.0625 0 0.21875 0.09375 0 0.25 0.09375 0 0.21875 0.09375 0 0.25 0.09375 0 0.21875 0.125 0 0.25 0.125 0 0.1875 0.09375 0 0.21875 0.09375 0 0.1875 0.125 0 0.21875 0.125 0 0.125 0.0625 0 0.15625 0.0625 0 0.125 0.09375 0 0.15625 0.09375 0 0.15625 0.0625 0 0.1875 0.0625 0 0.15625 0.09375 0 0.1875 0.09375 0 0.15625 0.09375 0 0.1875 0.09375 0 0.15625 0.125 0 0.1875 0.125 0 0.125 0.09375 0 0.15625 0.09375 0 0.125 0.125 0 0.15625 0.125 0 0.125 0.125 0 0.15625 0.125 0 0.125 0.15625 0 0.15625 0.15625 0 0.15625 0.125 0 0.1875 0.125 0 0.15625 0.15625 0 0.1875 0.15625 0 0.15625 0.15625 0 0.1875 0.15625 0 0.15625 0.1875 0 0.1875 0.1875 0 0.125 0.15625 0 0.15625 0.15625 0 0.125 0.1875 0 0.15625 0.1875 0 0.1875 0.125 0 0.21875 0.125 0 0.1875 0.15625 0 0.21875 0.15625 0 0.21875 0.125 0 0.25 0.125 0 0.21875 0.15625 0 0.25 0.15625 0 0.21875 0.15625 0 0.25 0.15625 0 0.21875 0.1875 0 0.25 0.1875 0 0.1875 0.15625 0 0.21875 0.15625 0 0.1875 0.1875 0 0.21875 0.1875 0 0.1875 0.1875 0 0.21875 0.1875 0 0.1875 0.21875 0 0.21875 0.21875 0 0.21875 0.1875 0 0.25 0.1875 0 0.21875 0.21875 0 0.25 0.21875 0 0.21875 0.21875 0 0.25 0.21875 0 0.21875 0.25 0 0.25 0.25 0 0.1875 0.21875 0 0.21875 0.21875 0 0.1875 0.25 0 0.21875 0.25 0 0.125 0.1875 0 0.15625 0.1875 0 0.125 0.21875 0 0.15625 0.21875 0 0.15625 0.1875 0 0.1875 0.1875 0 0.15625 0.21875 0 0.1875 0.21875 0 0.15625 0.21875 0 0.1875 0.21875 0 0.15625 0.25 0 0.1875 0.25 0 0.125 0.21875 0 0.15625 0.21875 0 0.125 0.25 0 0.15625 0.25 0 0 0.125 0 0.03125 0.125 0 0 0.15625 0 0.03125 0.15625 0 0.03125 0.125 0 0.0625 0.125 0 0.03125 0.15625 0 0.0625 0.15625 0 0.03125 0.15625 0 0.0625 0.15625 0 0.03125 0.1875 0 0.0625 0.1875 0 0 0.15625 0 0.03125 0.15625 0 0 0.1875 0 0.03125 0.1875 0 0.0625 0.125 0 0.09375 0.125 0 0.0625 0.15625 0 0.09375 0.15625 0 0.09375 0.125 0 0.125 0.125 0 0.09375 0.15625 0 0.125 0.15625 0 0.09375 0.15625 0 0.125 0.15625 0 0.09375 0.1875 0 0.125 0.1875 0 0.0625 0.15625 0 0.09375 0.15625 0 0.0625 0.1875 0 0.09375 0.1875 0 0.0625 0.1875 0 0.09375 0.1875 0 0.0625 0.21875 0 0.09375 0.21875 0 0.09375 0.1875 0 0.125 0.1875 0 0.09375 0.21875 0 0.125 0.21875 0 0.09375 0.21875 0 0.125 0.21875 0 0.09375 0.25 0 0.125 0.25 0 0.0625 0.21875 0 0.09375 0.21875 0 0.0625 0.25 0 0.09375 0.25 0 0 0.1875 0 0.03125 0.1875 0 0 0.21875 0 0.03125 0.21875 0 0.03125 0.1875 0 0.0625 0.1875 0 0.03125 0.21875 0 0.0625 0.21875 0 0.03125 0.21875 0 0.0625 0.21875 0 0.03125 0.25 0 0.0625 0.25 0 0 0.21875 0 0.03125 0.21875 0 0 0.25 0 0.03125 0.25 0 0.25 0 0 0.28125 0 0 0.25 0.03125 0 0.28125 0.03125 0 0.28125 0 0 0.3125 0 0 0.28125 0.03125 0 0.3125 0.03125 0 0.28125 0.03125 0 0.3125 0.03125 0 0.28125 0.0625 0 0.3125 0.0625 0 0.25 0.03125 0 0.28125 0.03125 0 0.25 0.0625 0 0.28125 0.0625 0 0.3125 0 0 0.34375 0 0 0.3125 0.03125 0 0.34375 0.03125 0 0.34375 0 0 0.375 0 0 0.34375 0.03125 0 0.375 0.03125 0 0.34375 0.03125 0 0.375 0.03125 0 0.34375 0.0625 0 0.375 0.0625 0 0.3125 0.03125 0 0.34375 0.03125 0 0.3125 0.0625 0 0.34375 0.0625 0 0.3125 0.0625 0 0.34375 0.0625 0 0.3125 0.09375 0 0.34375 0.09375 0 0.34375 0.0625 0 0.375 0.0625 0 0.34375 0.09375 0 0.375 0.09375 0 0.34375 0.09375 0 0.375 0.09375 0 0.34375 0.125 0 0.375 0.125 0 0.3125 0.09375 0 0.34375 0.09375 0 0.3125 0.125 0 0.34375 0.125 0 0.25 0.0625 0 0.28125 0.0625 0 0.25 0.09375 0 0.28125 0.09375 0 0.28125 0.0625 0 0.3125 0.0625 0 0.28125 0.09375 0 0.3125 0.09375 0 0.28125 0.09375 0 0.3125 0.09375 0 0.28125 0.125 0 0.3125 0.125 0 0.25 0.09375 0 0.28125 0.09375 0 0.25 0.125 0 0.28125 0.125 0 0.375 0 0 0.40625 0 0 0.375 0.03125 0 0.40625 0.03125 0 0.40625 0 0 0.4375 0 0 0.40625 0.03125 0 0.4375 0.03125 0 0.40625 0.03125 0 0.4375 0.03125 0 0.40625 0.0625 0 0.4375 0.0625 0 0.375 0.03125 0 0.40625 0.03125 0 0.375 0.0625 0 0.40625 0.0625 0 0.4375 0 0 0.46875 0 0 0.4375 0.03125 0 0.46875 0.03125 0 0.46875 0 0 0.5 0 0 0.46875 0.03125 0 0.5 0.03125 0 0.46875 0.03125 0 0.5 0.03125 0 0.46875 0.0625 0 0.5 0.0625 0 0.4375 0.03125 0 0.46875 0.03125 0 0.4375 0.0625 0 0.46875 0.0625 0 0.4375 0.0625 0 0.46875 0.0625 0 0.4375 0.09375 0 0.46875 0.09375 0 0.46875 0.0625 0 0.5 0.0625 0 0.46875 0.09375 0 0.5 0.09375 0 0.46875 0.09375 0 0.5 0.09375 0 0.46875 0.125 0 0.5 0.125 0 0.4375 0.09375 0 0.46875 0.09375 0 0.4375 0.125 0 0.46875 0.125 0 0.375 0.0625 0 0.40625 0.0625 0 0.375 0.09375 0 0.40625 0.09375 0 0.40625 0.0625 0 0.4375 0.0625 0 0.40625 0.09375 0 0.4375 0.09375 0 0.40625 0.09375 0 0.4375 0.09375 0 0.40625 0.125 0 0.4375 0.125 0 0.375 0.09375 0 0.40625 0.09375 0 0.375 0.125 0 0.40625 0.125 0 0.375 0.125 0 0.40625 0.125 0 0.375 0.15625 0 0.40625 0.15625 0 0.40625 0.125 0 0.4375 0.125 0 0.40625 0.15625 0 0.4375 0.15625 0 0.40625 0.15625 0 0.4375 0.15625 0 0.40625 0.1875 0 0.4375 0.1875 0 0.375 0.15625 0 0.40625 0.15625 0 0.375 0.1875 0 0.40625 0.1875 0 0.4375 0.125 0 0.46875 0.125 0 0.4375 0.15625 0 0.46875 0.15625 0 0.46875 0.125 0 0.5 0.125 0 0.46875 0.15625 0 0.5 0.15625 0 0.46875 0.15625 0 0.5 0.15625 0 0.46875 0.1875 0 0.5 0.1875 0 0.4375 0.15625 0 0.46875 0.15625 0 0.4375 0.1875 0 0.46875 0.1875 0 0.4375 0.1875 0 0.46875 0.1875 0 0.4375 0.21875 0 0.46875 0.21875 0 0.46875 0.1875 0 0.5 0.1875 0 0.46875 0.21875 0 0.5 0.21875 0 0.46875 0.21875 0 0.5 0.21875 0 0.46875 0.25 0 0.5 0.25 0 0.4375 0.21875 0 0.46875 0.21875 0 0.4375 0.25 0 0.46875 0.25 0 0.375 0.1875 0 0.40625 0.1875 0 0.375 0.21875 0 0.40625 0.21875 0 0.40625 0.1875 0 0.4375 0.1875 0 0.40625 0.21875 0 0.4375 0.21875 0 0.40625 0.21875 0 0.4375 0.21875 0 0.40625 0.25 0 0.4375 0.25 0 0.375 0.21875 0 0.40625 0.21875 0 0.375 0.25 0 0.40625 0.25 0 0.25 0.125 0 0.28125 0.125 0 0.25 0.15625 0 0.28125 0.15625 0 0.28125 0.125 0 0.3125 0.125 0 0.28125 0.15625 0 0.3125 0.15625 0 0.28125 0.15625 0 0.3125 0.15625 0 0.28125 0.1875 0 0.3125 0.1875 0 0.25 0.15625 0 0.28125 0.15625 0 0.25 0.1875 0 0.28125 0.1875 0 0.3125 0.125 0 0.34375 0.125 0 0.3125 0.15625 0 0.34375 0.15625 0 0.34375 0.125 0 0.375 0.125 0 0.34375 0.15625 0 0.375 0.15625 0 0.34375 0.15625 0 0.375 0.15625 0 0.34375 0.1875 0 0.375 0.1875 0 0.3125 0.15625 0 0.34375 0.15625 0 0.3125 0.1875 0 0.34375 0.1875 0 0.3125 0.1875 0 0.34375 0.1875 0 0.3125 0.21875 0 0.34375 0.21875 0 0.34375 0.1875 0 0.375 0.1875 0 0.34375 0.21875 0 0.375 0.21875 0 0.34375 0.21875 0 0.375 0.21875 0 0.34375 0.25 0 0.375 0.25 0 0.3125 0.21875 0 0.34375 0.21875 0 0.3125 0.25 0 0.34375 0.25 0 0.25 0.1875 0 0.28125 0.1875 0 0.25 0.21875 0 0.28125 0.21875 0 0.28125 0.1875 0 0.3125 0.1875 0 0.28125 0.21875 0 0.3125 0.21875 0 0.28125 0.21875 0 0.3125 0.21875 0 0.28125 0.25 0 0.3125 0.25 0 0.25 0.21875 0 0.28125 0.21875 0 0.25 0.25 0 0.28125 0.25 0 0.25 0.25 0 0.28125 0.25 0 0.25 0.28125 0 0.28125 0.28125 0 0.28125 0.25 0 0.3125 0.25 0 0.28125 0.28125 0 0.3125 0.28125 0 0.28125 0.28125 0 0.3125 0.28125 0 0.28125 0.3125 0 0.3125 0.3125 0 0.25 0.28125 0 0.28125 0.28125 0 0.25 0.3125 0 0.28125 0.3125 0 0.3125 0.25 0 0.34375 0.25 0 0.3125 0.28125 0 0.34375 0.28125 0 0.34375 0.25 0 0.375 0.25 0 0.34375 0.28125 0 0.375 0.28125 0 0.34375 0.28125 0 0.375 0.28125 0 0.34375 0.3125 0 0.375 0.3125 0 0.3125 0.28125 0 0.34375 0.28125 0 0.3125 0.3125 0 0.34375 0.3125 0 0.3125 0.3125 0 0.34375 0.3125 0 0.3125 0.34375 0 0.34375 0.34375 0 0.34375 0.3125 0 0.375 0.3125 0 0.34375 0.34375 0 0.375 0.34375 0 0.34375 0.34375 0 0.375 0.34375 0 0.34375 0.375 0 0.375 0.375 0 0.3125 0.34375 0 0.34375 0.34375 0 0.3125 0.375 0 0.34375 0.375 0 0.25 0.3125 0 0.28125 0.3125 0 0.25 0.34375 0 0.28125 0.34375 0 0.28125 0.3125 0 0.3125 0.3125 0 0.28125 0.34375 0 0.3125 0.34375 0 0.28125 0.34375 0 0.3125 0.34375 0 0.28125 0.375 0 0.3125 0.375 0 0.25 0.34375 0 0.28125 0.34375 0 0.25 0.375 0 0.28125 0.375 0 0.375 0.25 0 0.40625 0.25 0 0.375 0.28125 0 0.40625 0.28125 0 0.40625 0.25 0 0.4375 0.25 0 0.40625 0.28125 0 0.4375 0.28125 0 0.40625 0.28125 0 0.4375 0.28125 0 0.40625 0.3125 0 0.4375 0.3125 0 0.375 0.28125 0 0.40625 0.28125 0 0.375 0.3125 0 0.40625 0.3125 0 0.4375 0.25 0 0.46875 0.25 0 0.4375 0.28125 0 0.46875 0.28125 0 0.46875 0.25 0 0.5 0.25 0 0.46875 0.28125 0 0.5 0.28125 0 0.46875 0.28125 0 0.5 0.28125 0 0.46875 0.3125 0
[...]
            <PointData>
                <DataArray Name="u" type="Float64" format="ascii">0 0 0 0.00630393 0 0 0.00630393 -0.00120075 0.00630393 -0.00120075 -0.00120075 -0.000259254 0 0.00630393 0 -0.00120075 0 0 -0.00120075 0.0028185 0 0 0.0028185 -0.00239968 0.0028185 -0.00239968 -0.00282075 0.0117628 -0.00120075 0.0028185 -0.000259254 -0.00282075 -0.000259254 -0.00282075 -0.00282075 0.0156458 -0.00282075 0.0117628 0.0156458 0.0497888 0.0156458 0.0497888 0.0497888 0.111031 -0.00282075 0.0156458 0.0117628 0.0497888 0 -0.00120075 0 0.0028185 -0.00120075 -0.000259254 0.0028185 -0.00282075 0.0028185 -0.00282075 -0.00239968 0.0117628 0 0.0028185 0 -0.00239968 0 0 -0.00239968 -0.00188212 0 0 -0.00188212 0.006729 -0.00188212 0.006729 0.0320343 0.0567098 -0.00239968 -0.00188212 0.0117628 0.0320343 0 0 0.006729 0.0212082 0 0 0.0212082 0.0256894 0.0212082 0.0256894 0.0893802 0.109959 0.006729 0.0212082 0.0567098 0.0893802 0.0567098 0.0893802 0.151065 0.201015 0.0893802 0.109959 0.201015 0.23851 0.201015 0.23851 0.331349 0.373036 0.151065 0.201015 0.267296 0.331349 0.0117628 0.0320343 0.0497888 0.0965494 0.0320343 0.0567098 0.0965494 0.151065 0.0965494 0.151065 0.18902 0.267296 0.0497888 0.0965494 0.111031 0.18902 0.111031 0.18902 0.18902 0.290932 0.18902 0.267296 0.290932 0.37986 0.290932 0.37986 0.37986 0.477616 0.18902 0.290932 0.267296 0.37986 0.267296 0.331349 0.37986 0.450959 0.331349 0.373036 0.450959 0.495424 0.450959 0.495424 0.549929 0.600747 0.37986 0.450959 0.477616 0.549929 0.477616 0.549929 0.549929 0.626406 0.549929 0.600747 0.626406 0.67825 0.626406 0.67825 0.67825 0.7305 0.549929 0.626406 0.600747 0.67825 0.267296 0.37986 0.331349 0.450959 0.37986 0.477616 0.450959 0.549929 0.450959 0.549929 0.495424 0.600747 0.331349 0.450959 0.373036 0.495424 0 -0.00239968 0 -0.00188212 -0.00239968 0.0117628 -0.00188212 0.0320343 -0.00188212 0.0320343 0.006729 0.0567098 0 -0.00188212 0 0.006729 0.0117628 0.0497888 0.0320343 0.0965494 0.0497888 0.111031 0.0965494 0.18902 0.0965494 0.18902 0.151065 0.267296 0.0320343 0.0965494 0.0567098 0.151065 0.0567098 0.151065 0.0893802 0.201015 0.151065 0.267296 0.201015 0.331349 0.201015 0.331349 0.23851 0.373036 0.0893802 0.201015 0.109959 0.23851 0 0.006729 0 0.0212082 0.006729 0.0567098 0.0212082 0.0893802 0.0212082 0.0893802 0.0256894 0.109959 0 0.0212082 0 0.0256894 0 0 0.0256894 0.0316581 0 0 0.0316581 0.0156863 0.0316581 0.0156863 0.12163 0.110865 0.0256894 0.0316581 0.109959 0.12163 0 0 0.0156863 0.0127597 0 0 0.0127597 -0.0173474 0.0127597 -0.0173474 0.0856744 0.0522002 0.0156863 0.0127597 0.110865 0.0856744 0.110865 0.0856744 0.24891 0.215855 0.0856744 0.0522002 0.215855 0.168807 0.215855 0.168807 0.358775 0.294977 0.24891 0.215855 0.383665 0.358775 0.109959 0.12163 0.23851 0.252237 0.12163 0.110865 0.252237 0.24891 0.252237 0.24891 0.393431 0.383665 0.23851 0.252237 0.373036 0.393431 0 0 -0.0173474 -0.00836184 0 0 -0.00836184 0.00563667 -0.00836184 0.00563667 -0.0101184 -0.0126038 -0.0173474 -0.00836184 0.0522002 -0.0101184 0 0 0.00563667 0.00126097 0 0 0.00126097 -0.000357052 0.00126097 -0.000357052 0.0029222 0.00106708 0.00563667 0.00126097 -0.0126038 0.0029222 -0.0126038 0.0029222 0.00930851 -0.00920751 0.0029222 0.00106708 -0.00920751 0.000777524 -0.00920751 0.000777524 0.0164216 -0.00610437 0.00930851 -0.00920751 0.127521 0.0164216 0.0522002 -0.0101184 0.168807 0.102061 -0.0101184 -0.0126038 0.102061 0.00930851 0.102061 0.00930851 0.230524 0.127521 0.168807 0.102061 0.294977 0.230524 0.294977 0.230524 0.422504 0.331538 0.230524 0.127521 0.331538 0.250445 0.331538 0.250445 0.428449 0.332406 0.422504 0.331538 0.524875 0.428449 0.127521 0.0164216 0.250445 0.107163 0.0164216 -0.00610437 0.107163 0.0116722 0.107163 0.0116722 0.209977 0.0601388 0.250445 0.107163 0.332406 0.209977 0.332406 0.209977 0.392409 0.282246 0.209977 0.0601388 0.282246 0.119688 0.282246 0.119688 0.325279 0.164741 0.392409 0.282246 0.435479 0.325279 0.524875 0.428449 0.595755 0.508887 0.428449 0.332406 0.508887 0.392409 0.508887 0.392409 0.564842 0.435479 0.595755 0.508887 0.642298 0.564842 0.373036 0.393431 0.495424 0.517867 0.393431 0.383665 0.517867 0.509602 0.517867 0.509602 0.617555 0.617412 0.495424 0.517867 0.600747 0.617555 0.383665 0.358775 0.509602 0.477157 0.358775 0.294977 0.477157 0.422504 0.477157 0.422504 0.574007 0.524875 0.509602 0.477157 0.617412 0.574007 0.617412 0.574007 0.694935 0.658449 0.574007 0.524875 0.658449 0.595755 0.658449 0.595755 0.710786 0.642298 0.694935 0.658449 0.745767 0.710786 0.600747 0.617555 0.67825 0.700485 0.617555 0.617412 0.700485 0.694935 0.700485 0.694935 0.751429 0.745767 0.67825 0.700485 0.7305 0.751429 0.7305 0.751429 0.751429 0.781964 0.751429 0.745767 0.781964 0.767195 0.781964 0.767195 0.767195 0.761994 0.751429 0.781964 0.745767 0.767195 0.745767 0.710786 0.767195 0.742024 0.710786 0.642298 0.742024 0.663296 0.742024 0.663296 0.726684 0.66046 0.767195 0.742024 0.761994 0.726684 0.761994 0.726684 0.726684 0.703868 0.726684 0.66046 0.703868 0.62361 0.703868 0.62361 0.62361 0.57041 0.726684 0.703868 0.66046 0.62361 0.745767 0.767195 0.710786 0.742024 0.767195 0.761994 0.742024 0.726684 0.742024 0.726684 0.663296 0.66046 0.710786 0.742024 0.642298 0.663296 0.642298 0.564842 0.663296 0.584768 0.564842 0.435479 0.584768 0.458313 0.584768 0.458313 0.582177 0.455026 0.663296 0.584768 0.66046 0.582177 0.435479 0.325279 0.458313 0.341965 0.325279 0.164741 0.341965 0.187526 0.341965 0.187526 0.337953 0.182851 0.458313 0.341965 0.455026 0.337953 0.455026 0.337953 0.424401 0.307183 0.337953 0.182851 0.307183 0.16696 0.307183 0.16696 0.248454 0.132228 0.424401 0.307183 0.379963 0.248454 0.66046 0.582177 0.62361 0.546154 0.582177 0.455026 0.546154 0.424401 0.546154 0.424401 0.485268 0.379963 0.62361 0.546154 0.57041 0.485268 0.57041 0.485268 0.485268 0.398674 0.485268 0.379963 0.398674 0.297619 0.398674 0.297619 0.297619 0.206609 0.485268 0.398674 0.379963 0.297619 0.379963 0.248454 0.297619 0.187067 0.248454 0.132228 0.187067 0.0887017 0.187067 0.0887017 0.120961 0.0477015 0.297619 0.187067 0.206609 0.120961 0.206609 0.120961 0.120961 0.0581402 0.120961 0.0477015 0.0581402 0.0179693 0.0581402 0.0179693 0.0179693 0.00410984 0.120961 0.0581402 0.0477015 0.0179693 0.379963 0.297619 0.248454 0.187067 0.297619 0.206609 0.187067 0.120961 0.187067 0.120961 0.0887017 0.0477015 0.248454 0.187067 0.132228 0.0887017 0.642298 0.663296 0.564842 0.584768 0.663296 0.66046 0.584768 0.582177 0.584768 0.582177 0.458313 0.455026 0.564842 0.584768 0.435479 0.458313 0.66046 0.62361 0.582177 0.546154 0.62361 0.57041 0.546154 0.485268 0.546154 0.485268 0.424401 0.379963 0.582177 0.546154 0.455026 0.424401 0.455026 0.424401 0.337953 0.307183 0.424401 0.379963 0.307183 0.248454 0.307183 0.248454 0.16696 0.132228 0.337953 0.307183 0.182851 0.16696 0.435479 0.458313 0.325279 0.341965 0.458313 0.455026 0.341965 0.337953 0.341965 0.337953 0.187526 0.182851 0.325279 0.341965 0.164741 0.187526 0 0.0256894 0 0.0316581 0.0256894 0.109959 0.0316581 0.12163 0.0316581 0.12163 0.0156863 0.110865 0 0.0316581 0 0.0156863 0.109959 0.23851 0.12163 0.252237 0.23851 0.373036 0.252237 0.393431 0.252237 0.393431 0.24891 0.383665 0.12163 0.252237 0.110865 0.24891 0.110865 0.24891 0.0856744 0.215855 0.24891 0.383665 0.215855 0.358775 0.215855 0.358775 0.168807 0.294977 0.0856744 0.215855 0.0522002 0.168807 0 0.0156863 0 0.0127597 0.0156863 0.110865 0.0127597 0.0856744 0.0127597 0.0856744 -0.0173474 0.0522002 0 0.0127597 0 -0.0173474 0.373036 0.495424 0.393431 0.517867 0.495424 0.600747 0.517867 0.617555 0.517867 0.617555 0.509602 0.617412 0.393431 0.517867 0.383665 0.509602 0.600747 0.67825 0.617555 0.700485 0.67825 0.7305 0.700485 0.751429 0.700485 0.751429 0.694935 0.745767 0.617555 0.700485 0.617412 0.694935 0.617412 0.694935 0.574007 0.658449 0.694935 0.745767 0.658449 0.710786 0.658449 0.710786 0.595755 0.642298 0.574007 0.658449 0.524875 0.595755 0.383665 0.509602 0.358775 0.477157 0.509602 0.617412 0.477157 0.574007 0.477157 0.574007 0.422504 0.524875 0.358775 0.477157 0.294977 0.422504 0.294977 0.422504 0.230524 0.331538 0.422504 0.524875 0.331538 0.428449 0.331538 0.428449 0.250445 0.332406 0.230524 0.331538 0.127521 0.250445 0.524875 0.595755 0.428449 0.508887 0.595755 0.642298 0.508887 0.564842 0.508887 0.564842 0.392409 0.435479 0.428449 0.508887 0.332406 0.392409 0.332406 0.392409 0.209977 0.282246 0.392409 0.435479 0.282246 0.325279 0.282246 0.325279 0.119688 0.164741 0.209977 0.282246 0.0601388 0.119688 0.127521 0.250445 0.0164216 0.107163 0.250445 0.332406 0.107163 0.209977 0.107163 0.209977 0.0116722 0.0601388 0.0164216 0.107163 -0.00610437 0.0116722 0 -0.0173474 0 -0.00836184 -0.0173474 0.0522002 -0.00836184 -0.0101184 -0.00836184 -0.0101184 0.00563667 -0.0126038 0 -0.00836184 0 0.00563667 0.0522002 0.168807 -0.0101184 0.102061 0.168807 0.294977 0.102061 0.230524 0.102061 0.230524 0.00930851 0.127521 -0.0101184 0.102061 -0.0126038 0.00930851 -0.0126038 0.00930851 0.0029222 -0.00920751 0.00930851 0.127521 -0.00920751 0.0164216 -0.00920751 0.0164216 0.000777524 -0.00610437 0.0029222 -0.00920751 0.00106708 0.000777524 0 0.00563667 0 0.00126097 0.00563667 -0.0126038 0.00126097 0.0029222 0.00126097 0.0029222 -0.000357052 0.00106708 0 0.00126097 0 -0.000357052 0 0 -0.000357052 0.000791909 0 0 0.000791909 0.000496467 0.000791909 0.000496467 -0.00112035 -0.000367272 -0.000357052 0.000791909 0.00106708 -0.00112035 0 0 0.000496467 3.16835e-05 0 0 3.16835e-05 -1.83425e-05 3.16835e-05 -1.83425e-05 3.3776e-05 9.76034e-06 0.000496467 3.16835e-05 -0.000367272 3.3776e-05 -0.000367272 3.3776e-05 0.000140352 -3.32295e-05 3.3776e-05 9.76034e-06 -3.32295e-05 3.55214e-06 -3.32295e-05 3.55214e-06 -3.82998e-05 -9.22455e-06 0.000140352 -3.32295e-05 0.000251961 -3.82998e-05 0.00106708 -0.00112035 0.000777524 0.00150643 -0.00112035 -0.000367272 0.00150643 0.000140352 0.00150643 0.000140352 -0.00084511 0.000251961 0.000777524 0.00150643 -0.00610437 -0.00084511 0 0 -1.83425e-05 1.04052e-06 0 0 1.04052e-06 4.96151e-07 1.04052e-06 4.96151e-07 -2.82437e-06 2.07195e-07 -1.83425e-05 1.04052e-06 9.76034e-06 -2.82437e-06 0 0 4.96151e-07 -1.44615e-07 0 0 -1.44615e-07 1.59255e-08 -1.44615e-07 1.59255e-08 6.37144e-08 -2.61018e-08 4.96151e-07 -1.44615e-07 2.07195e-07 6.37144e-08 2.07195e-07 6.37144e-08 -2.91762e-07 8.5065e-08 6.37144e-08 -2.61018e-08 8.5065e-08 -1.04705e-08 8.5065e-08 -1.04705e-08 -7.67165e-08 5.5603e-08 -2.91762e-07 8.5065e-08 -6.33806e-07 -7.67165e-08 9.76034e-06 -2.82437e-06 3.55214e-06 2.36752e-07 -2.82437e-06 2.07195e-07 2.36752e-07 -2.91762e-07 2.36752e-07 -2.91762e-07 4.57577e-06 -6.33806e-07 3.55214e-06 2.36752e-07 -9.22455e-06 4.57577e-06 -9.22455e-06 4.57577e-06 -2.35367e-05 -5.55304e-06 4.57577e-06 -6.33806e-07 -5.55304e-06 2.52137e-06 -5.55304e-06 2.52137e-06 -1.52199e-05 -1.05401e-07 -2.35367e-05 -5.55304e-06 7.57641e-05 -1.52199e-05 -6.33806e-07 -7.67165e-08 2.52137e-06 -3.90257e-07 -7.67165e-08 5.5603e-08 -3.90257e-07 -1.6067e-08 -3.90257e-07 -1.6067e-08 7.47856e-07 -2.01879e-07 2.52137e-06 -3.90257e-07 -1.05401e-07 7.47856e-07 -1.05401e-07 7.47856e-07 -6.44288e-06 1.34928e-06 7.47856e-07 -2.01879e-07 1.34928e-06 -6.53182e-08 1.34928e-06 -6.53182e-08 7.10793e-07 2.7355e-07 -6.44288e-06 1.34928e-06 -1.02395e-05 7.10793e-07 7.57641e-05 -1.52199e-05 0.000118622 5.51407e-06 -1.52199e-05 -1.05401e-07 5.51407e-06 -6.44288e-06 5.51407e-06 -6.44288e-06 3.85862e-05 -1.02395e-05 0.000118622 5.51407e-06 6.2199e-05 3.85862e-05 -0.00610437 -0.00084511 0.0116722 -0.00327374 -0.00084511 0.000251961 -0.00327374 -0.000196093 -0.00327374 -0.000196093 0.00251279 -0.0019767 0.0116722 -0.00327374 0.0601388 0.00251279 0.000251961 -3.82998e-05 -0.000196093 0.000205502 -3.82998e-05 -9.22455e-06 0.000205502 -2.35367e-05 0.000205502 -2.35367e-05 3.36258e-05 7.57641e-05 -0.000196093 0.000205502 -0.0019767 3.36258e-05 -0.0019767 3.36258e-05 -0.00124208 -0.000624085 3.36258e-05 7.57641e-05 -0.000624085 0.000118622 -0.000624085 0.000118622 -0.0012343 6.2199e-05 -0.00124208 -0.000624085 0.00147309 -0.0012343 0.0601388 0.00251279 0.119688 0.0218254 0.00251279 -0.0019767 0.0218254 -0.00124208 0.0218254 -0.00124208 0.0426472 0.00147309 0.119688 0.0218254 0.164741 0.0426472 0 0 1.59255e-08 1.44936e-09 0 0 1.44936e-09 -1.0598e-09 1.44936e-09 -1.0598e-09 4.99072e-09 -4.02202e-10 1.59255e-08 1.44936e-09 -2.61018e-08 4.99072e-09 0 0 -1.0598e-09 2.65031e-10 0 0 2.65031e-10 -4.08305e-11 2.65031e-10 -4.08305e-11 -9.60212e-11 5.4548e-11 -1.0598e-09 2.65031e-10 -4.02202e-10 -9.60212e-11 -4.02202e-10 -9.60212e-11 1.17977e-09 -3.16829e-10 -9.60212e-11 5.4548e-11 -3.16829e-10 4.99633e-11 -3.16829e-10 4.99633e-11 3.01472e-10 -1.56619e-10 1.17977e-09 -3.16829e-10 1.12683e-09 3.01472e-10 -2.61018e-08 4.99072e-09 -1.04705e-08 -1.59224e-09 4.99072e-09 -4.02202e-10 -1.59224e-09 1.17977e-09 -1.59224e-09 1.17977e-09 -1.27378e-08 1.12683e-09 -1.04705e-08 -1.59224e-09 5.5603e-08 -1.27378e-08 0 0 -4.08305e-11 2.34246e-12 0 0 2.34246e-12 9.8055e-13 2.34246e-12 9.8055e-13 -1.41686e-11 2.9483e-12 -4.08305e-11 2.34246e-12 5.4548e-11 -1.41686e-11 0 0 9.8055e-13 -4.24079e-13 0 0 -4.24079e-13 0 -4.24079e-13 0 -1.59223e-13 0 9.8055e-13 -4.24079e-13 2.9483e-12 -1.59223e-13 2.9483e-12 -1.59223e-13 -2.40227e-12 1.29191e-12 -1.59223e-13 0 1.29191e-12 0 1.29191e-12 0 4.37447e-13 0 -2.40227e-12 1.29191e-12 -5.28217e-12 4.37447e-13 5.4548e-11 -1.41686e-11 4.99633e-11 1.65521e-12 -1.41686e-11 2.9483e-12 1.65521e-12 -2.40227e-12 1.65521e-12 -2.40227e-12 4.09923e-11 -5.28217e-12 4.99633e-11 1.65521e-12 -1.56619e-10 4.09923e-11 -1.56619e-10 4.09923e-11 -2.53399e-11 -4.86102e-11 4.09923e-11 -5.28217e-12 -4.86102e-11 1.98304e-11 -4.86102e-11 1.98304e-11 -1.00658e-10 5.66541e-12 -2.53399e-11 -4.86102e-11 6.07246e-10 -1.00658e-10 -5.28217e-12 4.37447e-13 1.98304e-11 -4.05612e-12 4.37447e-13 0 -4.05612e-12 0 -4.05612e-12 0 3.23141e-12 0 1.98304e-11 -4.05612e-12 5.66541e-12 3.23141e-12 5.66541e-12 3.23141e-12 -3.81468e-11 1.08072e-11 3.23141e-12 0 1.08072e-11 0 1.08072e-11 0 9.52554e-12 0 -3.81468e-11 1.08072e-11 -5.99074e-11 9.52554e-12 6.07246e-10 -1.00658e-10 3.59988e-10 5.65804e-11 -1.00658e-10 5.66541e-12 5.65804e-11 -3.81468e-11 5.65804e-11 -3.81468e-11 2.43757e-10 -5.99074e-11 3.59988e-10 5.65804e-11 -5.24537e-10 2.43757e-10 5.5603e-08 -1.27378e-08 -1.6067e-08 2.5016e-08 -1.27378e-08 1.12683e-09 2.5016e-08 -7.25646e-09 2.5016e-08 -7.25646e-09 2.28624e-08 3.05689e-09 -1.6067e-08 2.5016e-08 -2.01879e-07 2.28624e-08 1.12683e-09 3.01472e-10 -7.25646e-09 1.15847e-09 3.01472e-10 -1.56619e-10 1.15847e-09 -2.53399e-11 1.15847e-09 -2.53399e-11 -2.2009e-09 6.07246e-10 -7.25646e-09 1.15847e-09 3.05689e-09 -2.2009e-09 3.05689e-09 -2.2009e-09 1.79296e-08 -3.64714e-09 -2.2009e-09 6.07246e-10 -3.64714e-09 3.59988e-10 -3.64714e-09 3.59988e-10 -1.35514e-09 -5.24537e-10 1.79296e-08 -3.64714e-09 2.05749e-08 -1.35514e-09 -2.01879e-07 2.28624e-08 -6.53182e-08 -4.62994e-08 2.28624e-08 3.05689e-09 -4.62994e-08 1.79296e-08 -4.62994e-08 1.79296e-08 -1.1017e-07 2.05749e-08 -6.53182e-08 -4.62994e-08 2.7355e-07 -1.1017e-07 2.7355e-07 -1.1017e-07 6.12969e-07 -1.03927e-07 -1.1017e-07 2.05749e-08 -1.03927e-07 2.70453e-09 -1.03927e-07 2.70453e-09 -2.09143e-08 -1.1563e-08 6.12969e-07 -1.03927e-07 4.34058e-07 -2.09143e-08 2.05749e-08 -1.35514e-09 2.70453e-09 3.8407e-09 -1.35514e-09 -5.24537e-10 3.8407e-09 -1.33972e-09 3.8407e-09 -1.33972e-09 3.97232e-09 -6.69421e-10 2.70453e-09 3.8407e-09 -1.1563e-08 3.97232e-09 -1.1563e-08 3.97232e-09 1.08966e-09 -3.84849e-10 3.97232e-09 -6.69421e-10 -3.84849e-10 1.04876e-10 -3.84849e-10 1.04876e-10 -7.69143e-10 -1.50692e-10 1.08966e-09 -3.84849e-10 8.39541e-09 -7.69143e-10 4.34058e-07 -2.09143e-08 1.40894e-07 -1.26603e-08 -2.09143e-08 -1.1563e-08 -1.26603e-08 1.08966e-09 -1.26603e-08 1.08966e-09 -4.42308e-08 8.39541e-09 1.40894e-07 -1.26603e-08 1.44646e-07 -4.42308e-08 -5.24537e-10 2.43757e-10 -1.33972e-09 2.66052e-10 2.43757e-10 -5.99074e-11 2.66052e-10 -2.89091e-11 2.66052e-10 -2.89091e-11 3.94761e-11 1.41901e-11 -1.33972e-09 2.66052e-10 -6.69421e-10 3.94761e-11 -5.99074e-11 9.52554e-12 -2.89091e-11 -1.54341e-12 9.52554e-12 0 -1.54341e-12 0 -1.54341e-12 0 -5.23975e-12 0 -2.89091e-11 -1.54341e-12 1.41901e-11 -5.23975e-12 1.41901e-11 -5.23975e-12 -9.74366e-12 4.37912e-12 -5.23975e-12 0 4.37912e-12 0 4.37912e-12 0 5.04601e-12 0 -9.74366e-12 4.37912e-12 -2.70916e-11 5.04601e-12 -6.69421e-10 3.94761e-11 1.04876e-10 -2.09259e-12 3.94761e-11 1.41901e-11 -2.09259e-12 -9.74366e-12 -2.09259e-12 -9.74366e-12 9.45631e-11 -2.70916e-11 1.04876e-10 -2.09259e-12 -1.50692e-10 9.45631e-11 -1.50692e-10 9.45631e-11 -2.49025e-10 4.48175e-11 9.45631e-11 -2.70916e-11 4.48175e-11 -2.83e-12 4.48175e-11 -2.83e-12 -1.93807e-11 6.37217e-12 -2.49025e-10 4.48175e-11 7.32445e-12 -1.93807e-11 -2.70916e-11 5.04601e-12 -2.83e-12 -1.08494e-12 5.04601e-12 0 -1.08494e-12 0 -1.08494e-12 0 -1.19374e-12 0 -2.83e-12 -1.08494e-12 6.37217e-12 -1.19374e-12 6.37217e-12 -1.19374e-12 -9.64062e-14 3.6511e-13 -1.19374e-12 0 3.6511e-13 0 3.6511e-13 0 1.30449e-13 0 -9.64062e-14 3.6511e-13 -9.90922e-13 1.30449e-13 7.32445e-12 -1.93807e-11 4.86644e-11 -7.09771e-12 -1.93807e-11 6.37217e-12 -7.09771e-12 -9.64062e-14 -7.09771e-12 -9.64062e-14 4.06974e-12 -9.90922e-13 4.86644e-11 -7.09771e-12 -7.60879e-12 4.06974e-12 1.44646e-07 -4.42308e-08 1.12231e-07 -1.90376e-08 -4.42308e-08 8.39541e-09 -1.90376e-08 4.20816e-10 -1.90376e-08 4.20816e-10 5.80234e-09 -2.02624e-09 1.12231e-07 -1.90376e-08 5.20823e-09 5.80234e-09 8.39541e-09 -7.69143e-10 4.20816e-10 7.40865e-10 -7.69143e-10 -1.50692e-10 7.40865e-10 -2.49025e-10 7.40865e-10 -2.49025e-10 3.14553e-10 7.32445e-12 4.20816e-10 7.40865e-10 -2.02624e-09 3.14553e-10 -2.02624e-09 3.14553e-10 1.60537e-10 -1.74455e-10 3.14553e-10 7.32445e-12 -1.74455e-10 4.86644e-11 -1.74455e-10 4.86644e-11 -2.71785e-11 -7.60879e-12 1.60537e-10 -1.74455e-10 2.97134e-10 -2.71785e-11 5.20823e-09 5.80234e-09 -1.50492e-08 2.23157e-09 5.80234e-09 -2.02624e-09 2.23157e-09 1.60537e-10 2.23157e-09 1.60537e-10 -1.19098e-09 2.97134e-10 -1.50492e-08 2.23157e-09 1.20831e-09 -1.19098e-09 0.164741 0.0426472 0.187526 0.0611517 0.0426472 0.00147309 0.0611517 0.00677306 0.0611517 0.00677306 0.0641892 0.00979193 0.187526 0.0611517 0.182851 0.0641892 0.00147309 -0.0012343 0.00677306 -0.0013697 -0.0012343 6.2199e-05 -0.0013697 -0.000136671 -0.0013697 -0.000136671 -0.000845459 -0.000256322 0.00677306 -0.0013697 0.00979193 -0.000845459 0.00979193 -0.000845459 0.00825701 -0.000591652 -0.000845459 -0.000256322 -0.000591652 -0.000168985 -0.000591652 -0.000168985 -0.000612181 -7.68114e-05 0.00825701 -0.000591652 0.00552437 -0.000612181 0.182851 0.0641892 0.16696 0.0568936 0.0641892 0.00979193 0.0568936 0.00825701 0.0568936 0.00825701 0.0439082 0.00552437 0.16696 0.0568936 0.132228 0.0439082 6.2199e-05 3.85862e-05 -0.000136671 6.71902e-05 3.85862e-05 -1.02395e-05 6.71902e-05 -6.469e-06 6.71902e-05 -6.469e-06 5.32153e-05 1.02881e-06 -0.000136671 6.71902e-05 -0.000256322 5.32153e-05 -1.02395e-05 7.10793e-07 -6.469e-06 -1.38298e-06 7.10793e-07 2.7355e-07 -1.38298e-06 6.12969e-07 -1.38298e-06 6.12969e-07 -2.16381e-06 4.34058e-07 -6.469e-06 -1.38298e-06 1.02881e-06 -2.16381e-06 1.02881e-06 -2.16381e-06 1.09641e-07 -7.7872e-07 -2.16381e-06 4.34058e-07 -7.7872e-07 1.40894e-07 -7.7872e-07 1.40894e-07 -7.83613e-08 1.44646e-07 1.09641e-07 -7.7872e-07 -3.11103e-06 -7.83613e-08 -0.000256322 5.32153e-05 -0.000168985 3.06191e-05 5.32153e-05 1.02881e-06 3.06191e-05 1.09641e-07 3.06191e-05 1.09641e-07 2.62085e-05 -3.11103e-06 -0.000168985 3.06191e-05 -7.68114e-05 2.62085e-05 -7.68114e-05 2.62085e-05 -3.94872e-05 1.48872e-05 2.62085e-05 -3.11103e-06 1.48872e-05 -1.34293e-06 1.48872e-05 -1.34293e-06 1.93128e-06 2.80974e-07 -3.94872e-05 1.48872e-05 -9.82516e-06 1.93128e-06 -3.11103e-06 -7.83613e-08 -1.34293e-06 -2.489e-07 -7.83613e-08 1.44646e-07 -2.489e-07 1.12231e-07 -2.489e-07 1.12231e-07 -1.17617e-07 5.20823e-09 -1.34293e-06 -2.489e-07 2.80974e-07 -1.17617e-07 2.80974e-07 -1.17617e-07 4.51072e-08 3.95866e-08 -1.17617e-07 5.20823e-09 3.95866e-0