<?xml version="1.0" encoding="UTF-8"?>
<VTKFile type="UnstructuredGrid" version="0.1" byte_order="LittleEndian" compressor="vtkZLibDataCompressor">
    <UnstructuredGrid>
        <Piece NumberOfPoints="4096" NumberOfCells="1024">
            <Points>
                <DataArray type="Float64" Name="Array" NumberOfComponents="3" format="ascii" RangeMin="0" RangeMax="1">0 0 0 0.03125 0 0 0 0.03125 0 0.03125 0.03125 0 0.03125 0 0 0.0625 0 0 0.03125 0.03125 0 0.0625 0.03125 0 0.03125 0.03125 0 0.0625 0.03125 0 0.03125 0.0625 0 0.0625 0.0625 0 0 0.03125 0 0.03125 0.03125 0 0 0.0625 0 0.03125 0.0625 0 0.0625 0 0 0.09375 0 0 0.0625 0.03125 0 0.09375 0.03125 0 0.09375 0 0 0.125 0 0 0.09375 0.03125 0 0.125 0.03125 0 0.09375 0.03125 0 0.125 0.03125 0 0.09375 0.0625 0 0.125 0.0625 0 0.0625 0.03125 0 0.09375 0.03125 0 0.0625 0.0625 0 0.09375 0.0625 0 0.0625 0.0625 0 0.09375 0.0625 0 0.0625 0.09375 0 0.09375 0.09375 0 0.09375 0.0625 0 0.125 0.0625 0 0.09375 0.09375 0 0.125 0.09375 0 0.09375 0.09375 0 0.125 0.09375 0 0.09375 0.125 0 0.125 0.125 0 0.0625 0.09375 0 0.09375 0.09375 0 0.0625 0.125 0 0.09375 0.125 0 0 0.0625 0 0.03125 0.0625 0 0 0.09375 0 0.03125 0.09375 0 0.03125 0.0625 0 0.0625 0.0625 0 0.03125 0.09375 0 0.0625 0.09375 0 0.03125 0.09375 0 0.0625 0.09375 0 0.03125 0.125 0 0.0625 0.125 0 0 0.09375 0 0.03125 0.09375 0 0 0.125 0 0.03125 0.125 0 0.125 0 0 0.15625 0 0 0.125 0.03125 0 0.15625 0.03125 0 0.15625 0 0 0.1875 0 0 0.15625 0.03125 0 0.1875 0.03125 0 0.15625 0.03125 0 0.1875 0.03125 0 0.15625 0.0625 0 0.1875 0.0625 0 0.125 0.03125 0 0.15625 0.03125 0 0.125 0.0625 0 0.15625 0.0625 0 0.1875 0 0 0.21875 0 0 0.1875 0.03125 0 0.21875 0.03125 0 0.21875 0 0 0.25 0 0 0.21875 0.03125 0 0.25 0.03125 0 0.21875 0.03125 0 0.25 0.03125 0 0.21875 0.0625 0 0.25 0.0625 0 0.1875 0.03125 0 0.21875 0.03125 0 0.1875 0.0625 0 0.21875 0.0625 0 0.1875 0.0625 0 0.21875 0.0625 0 0.1875 0.09375 0 0.21875 0.09375 0 0.21875 0.0625 0 0.25 0.0625 0 0.21875 0.09375 0 0.25 0.09375 0 0.21875 0.09375 0 0.25 0.09375 0 0.21875 0.125 0 0.25 0.125 0 0.1875 0.09375 0 0.21875 0.09375 0 0.1875 0.125 0 0.21875 0.125 0 0.125 0.0625 0 0.15625 0.0625 0 0.125 0.09375 0 0.15625 0.09375 0 0.15625 0.0625 0 0.1875 0.0625 0 0.15625 0.09375 0 0.1875 0.09375 0 0.15625 0.09375 0 0.1875 0.09375 0 0.15625 0.125 0 0.1875 0.125 0 0.125 0.09375 0 0.15625 0.09375 0 0.125 0.125 0 0.15625 0.125 0 0.125 0.125 0 0.15625 0.125 0 0.125 0.15625 0 0.15625 0.15625 0 0.15625 0.125 0 0.1875 0.125 0 0.15625 0.15625 0 0.1875 0.15625 0 0.15625 0.15625 0 0.1875 0.15625 0 0.15625 0.1875 0 0.1875 0.1875 0 0.125 0.15625 0 0.15625 0.15625 0 0.125 0.1875 0 0.15625 0.1875 0 0.1875 0.125 0 0.21875 0.125 0 0.1875 0.15625 0 0.21875 0.15625 0 0.21875 0.125 0 0.25 0.125 0 0.21875 0.15625 0 0.25 0.15625 0 0.21875 0.15625 0 0.25 0.15625 0 0.21875 0.1875 0 0.25 0.1875 0 0.1875 0.15625 0 0.21875 0.15625 0 0.1875 0.1875 0 0.21875 0.1875 0 0.1875 0.1875 0 0.21875 0.1875 0 0.1875 0.21875 0 0.21875 0.21875 0 0.21875 0.1875 0 0.25 0.1875 0 0.21875 0.21875 0 0.25 0.21875 0 0.21875 0.21875 0 0.25 0.21875 0 0.21875 0.25 0 0.25 0.25 0 0.1875 0.21875 0 0.21875 0.21875 0 0.1875 0.25 0 0.21875 0.25 0 0.125 0.1875 0 0.15625 0.1875 0 0.125 0.21875 0 0.15625 0.21875 0 0.15625 0.1875 0 0.1875 0.1875 0 0.15625 0.21875 0 0.1875 0.21875 0 0.15625 0.21875 0 0.1875 0.21875 0 0.15625 0.25 0 0.1875 0.25 0 0.125 0.21875 0 0.15625 0.21875 0 0.125 0.25 0 0.15625 0.25 0 0 0.125 0 0.03125 0.125 0 0 0.15625 0 0.03125 0.15625 0 0.03125 0.125 0 0.0625 0.125 0 0.03125 0.15625 0 0.0625 0.15625 0 0.03125 0.15625 0 0.0625 0.15625 0 0.03125 0.1875 0 0.0625 0.1875 0 0 0.15625 0 0.03125 0.15625 0 0 0.1875 0 0.03125 0.1875 0 0.0625 0.125 0 0.09375 0.125 0 0.0625 0.15625 0 0.09375 0.15625 0 0.09375 0.125 0 0.125 0.125 0 0.09375 0.15625 0 0.125 0.15625 0 0.09375 0.15625 0 0.125 0.15625 0 0.09375 0.1875 0 0.125 0.1875 0 0.0625 0.15625 0 0.09375 0.15625 0 0.0625 0.1875 0 0.09375 0.1875 0 0.0625 0.1875 0 0.09375 0.1875 0 0.0625 0.21875 0 0.09375 0.21875 0 0.09375 0.1875 0 0.125 0.1875 0 0.09375 0.21875 0 0.125 0.21875 0 0.09375 0.21875 0 0.125 0.21875 0 0.09375 0.25 0 0.125 0.25 0 0.0625 0.21875 0 0.09375 0.21875 0 0.0625 0.25 0 0.09375 0.25 0 0 0.1875 0 0.03125 0.1875 0 0 0.21875 0 0.03125 0.21875 0 0.03125 0.1875 0 0.0625 0.1875 0 0.03125 0.21875 0 0.0625 0.21875 0 0.03125 0.21875 0 0.0625 0.21875 0 0.03125 0.25 0 0.0625 0.25 0 0 0.21875 0 0.03125 0.21875 0 0 0.25 0 0.03125 0.25 0 0.25 0 0 0.28125 0 0 0.25 0.03125 0 0.28125 0.03125 0 0.28125 0 0 0.3125 0 0 0.28125 0.03125 0 0.3125 0.03125 0 0.28125 0.03125 0 0.3125 0.03125 0 0.28125 0.0625 0 0.3125 0.0625 0 0.25 0.03125 0 0.28125 0.03125 0 0.25 0.0625 0 0.28125 0.0625 0 0.3125 0 0 0.34375 0 0 0.3125 0.03125 0 0.34375 0.03125 0 0.34375 0 0 0.375 0 0 0.34375 0.03125 0 0.375 0.03125 0 0.34375 0.03125 0 0.375 0.03125 0 0.34375 0.0625 0 0.375 0.0625 0 0.3125 0.03125 0 0.34375 0.03125 0 0.3125 0.0625 0 0.34375 0.0625 0 0.3125 0.0625 0 0.34375 0.0625 0 0.3125 0.09375 0 0.34375 0.09375 0 0.34375 0.0625 0 0.375 0.0625 0 0.34375 0.09375 0 0.375 0.09375 0 0.34375 0.09375 0 0.375 0.09375 0 0.34375 0.125 0 0.375 0.125 0 0.3125 0.09375 0 0.34375 0.09375 0 0.3125 0.125 0 0.34375 0.125 0 0.25 0.0625 0 0.28125 0.0625 0 0.25 0.09375 0 0.28125 0.09375 0 0.28125 0.0625 0 0.3125 0.0625 0 0.28125 0.09375 0 0.3125 0.09375 0 0.28125 0.09375 0 0.3125 0.09375 0 0.28125 0.125 0 0.3125 0.125 0 0.25 0.09375 0 0.28125 0.09375 0 0.25 0.125 0 0.28125 0.125 0 0.375 0 0 0.40625 0 0 0.375 0.03125 0 0.40625 0.03125 0 0.40625 0 0 0.4375 0 0 0.40625 0.03125 0 0.4375 0.03125 0 0.40625 0.03125 0 0.4375 0.03125 0 0.40625 0.0625 0 0.4375 0.0625 0 0.375 0.03125 0 0.40625 0.03125 0 0.375 0.0625 0 0.40625 0.0625 0 0.4375 0 0 0.46875 0 0 0.4375 0.03125 0 0.46875 0.03125 0 0.46875 0 0 0.5 0 0 0.46875 0.03125 0 0.5 0.03125 0 0.46875 0.03125 0 0.5 0.03125 0 0.46875 0.0625 0 0.5 0.0625 0 0.4375 0.03125 0 0.46875 0.03125 0 0.4375 0.0625 0 0.46875 0.0625 0 0.4375 0.0625 0 0.46875 0.0625 0 0.4375 0.09375 0 0.46875 0.09375 0 0.46875 0.0625 0 0.5 0.0625 0 0.46875 0.09375 0 0.5 0.09375 0 0.46875 0.09375 0 0.5 0.09375 0 0.46875 0.125 0 0.5 0.125 0 0.4375 0.09375 0 0.46875 0.09375 0 0.4375 0.125 0 0.46875 0.125 0 0.375 0.0625 0 0.40625 0.0625 0 0.375 0.09375 0 0.40625 0.09375 0 0.40625 0.0625 0 0.4375 0.0625 0 0.40625 0.09375 0 0.4375 0.09375 0 0.40625 0.09375 0 0.4375 0.09375 0 0.40625 0.125 0 0.4375 0.125 0 0.375 0.09375 0 0.40625 0.09375 0 0.375 0.125 0 0.40625 0.125 0 0.375 0.125 0 0.40625 0.125 0 0.375 0.15625 0 0.40625 0.15625 0 0.40625 0.125 0 0.4375 0.125 0 0.40625 0.15625 0 0.4375 0.15625 0 0.40625 0.15625 0 0.4375 0.15625 0 0.40625 0.1875 0 0.4375 0.1875 0 0.375 0.15625 0 0.40625 0.15625 0 0.375 0.1875 0 0.40625 0.1875 0 0.4375 0.125 0 0.46875 0.125 0 0.4375 0.15625 0 0.46875 0.15625 0 0.46875 0.125 0 0.5 0.125 0 0.46875 0.15625 0 0.5 0.15625 0 0.46875 0.15625 0 0.5 0.15625 0 0.46875 0.1875 0 0.5 0.1875 0 0.4375 0.15625 0 0.46875 0.15625 0 0.4375 0.1875 0 0.46875 0.1875 0 0.4375 0.1875 0 0.46875 0.1875 0 0.4375 0.21875 0 0.46875 0.21875 0 0.46875 0.1875 0 0.5 0.1875 0 0.46875 0.21875 0 0.5 0.21875 0 0.46875 0.21875 0 0.5 0.21875 0 0.46875 0.25 0 0.5 0.25 0 0.4375 0.21875 0 0.46875 0.21875 0 0.4375 0.25 0 0.46875 0.25 0 0.375 0.1875 0 0.40625 0.1875 0 0.375 0.21875 0 0.40625 0.21875 0 0.40625 0.1875 0 0.4375 0.1875 0 0.40625 0.21875 0 0.4375 0.21875 0 0.40625 0.21875 0 0.4375 0.21875 0 0.40625 0.25 0 0.4375 0.25 0 0.375 0.21875 0 0.40625 0.21875 0 0.375 0.25 0 0.40625 0.25 0 0.25 0.125 0 0.28125 0.125 0 0.25 0.15625 0 0.28125 0.15625 0 0.28125 0.125 0 0.3125 0.125 0 0.28125 0.15625 0 0.3125 0.15625 0 0.28125 0.15625 0 0.3125 0.15625 0 0.28125 0.1875 0 0.3125 0.1875 0 0.25 0.15625 0 0.28125 0.15625 0 0.25 0.1875 0 0.28125 0.1875 0 0.3125 0.125 0 0.34375 0.125 0 0.3125 0.15625 0 0.34375 0.15625 0 0.34375 0.125 0 0.375 0.125 0 0.34375 0.15625 0 0.375 0.15625 0 0.34375 0.15625 0 0.375 0.15625 0 0.34375 0.1875 0 0.375 0.1875 0 0.3125 0.15625 0 0.34375 0.15625 0 0.3125 0.1875 0 0.34375 0.1875 0 0.3125 0.1875 0 0.34375 0.1875 0 0.3125 0.21875 0 0.34375 0.21875 0 0.34375 0.1875 0 0.375 0.1875 0 0.34375 0.21875 0 0.375 0.21875 0 0.34375 0.21875 0 0.375 0.21875 0 0.34375 0.25 0 0.375 0.25 0 0.3125 0.21875 0 0.34375 0.21875 0 0.3125 0.25 0 0.34375 0.25 0 0.25 0.1875 0 0.28125 0.1875 0 0.25 0.21875 0 0.28125 0.21875 0 0.28125 0.1875 0 0.3125 0.1875 0 0.28125 0.21875 0 0.3125 0.21875 0 0.28125 0.21875 0 0.3125 0.21875 0 0.28125 0.25 0 0.3125 0.25 0 0.25 0.21875 0 0.28125 0.21875 0 0.25 0.25 0 0.28125 0.25 0 0.25 0.25 0 0.28125 0.25 0 0.25 0.28125 0 0.28125 0.28125 0 0.28125 0.25 0 0.3125 0.25 0 0.28125 0.28125 0 0.3125 0.28125 0 0.28125 0.28125 0 0.3125 0.28125 0 0.28125 0.3125 0 0.3125 0.3125 0 0.25 0.28125 0 0.28125 0.28125 0 0.25 0.3125 0 0.28125 0.3125 0 0.3125 0.25 0 0.34375 0.25 0 0.3125 0.28125 0 0.34375 0.28125 0 0.34375 0.25 0 0.375 0.25 0 0.34375 0.28125 0 0.375 0.28125 0 0.34375 0.28125 0 0.375 0.28125 0 0.34375 0.3125 0 0.375 0.3125 0 0.3125 0.28125 0 0.34375 0.28125 0 0.3125 0.3125 0 0.34375 0.3125 0 0.3125 0.3125 0 0.34375 0.3125 0 0.3125 0.34375 0 0.34375 0.34375 0 0.34375 0.3125 0 0.375 0.3125 0 0.34375 0.34375 0 0.375 0.34375 0 0.34375 0.34375 0 0.375 0.34375 0 0.34375 0.375 0 0.375 0.375 0 0.3125 0.34375 0 0.34375 0.34375 0 0.3125 0.375 0 0.34375 0.375 0 0.25 0.3125 0 0.28125 0.3125 0 0.25 0.34375 0 0.28125 0.34375 0 0.28125 0.3125 0 0.3125 0.3125 0 0.28125 0.34375 0 0.3125 0.34375 0 0.28125 0.34375 0 0.3125 0.34375 0 0.28125 0.375 0 0.3125 0.375 0 0.25 0.34375 0 0.28125 0.34375 0 0.25 0.375 0 0.28125 0.375 0 0.375 0.25 0 0.40625 0.25 0 0.375 0.28125 0 0.40625 0.28125 0 0.40625 0.25 0 0.4375 0.25 0 0.40625 0.28125 0 0.4375 0.28125 0 0.40625 0.28125 0 0.4375 0.28125 0 0.40625 0.3125 0 0.4375 0.3125 0 0.375 0.28125 0 0.40625 0.28125 0 0.375 0.3125 0 0.40625 0.3125 0 0.4375 0.25 0 0.46875 0.25 0 0.4375 0.28125 0 0.46875 0.28125 0 0.46875 0.25 0 0.5 0.25 0 0.46875 0.28125 0 0.5 0.28125 0 0.46875 0.28125 0 0.5 0.28125 0 0.46875 0.3125 0
[...]
            <PointData>
                <DataArray Name="u" type="Float64" format="ascii">0.121094 0 0.234375 0.1704 0 0 0.1704 0.127688 0.1704 0.127688 0.285882 0.241979 0.234375 0.1704 0.339844 0.285882 0 0 0.127688 0.10775 0 0 0.10775 0.0944017 0.10775 0.0944017 0.209316 0.185283 0.127688 0.10775 0.241979 0.209316 0.241979 0.209316 0.339838 0.301688 0.209316 0.185283 0.301688 0.270251 0.301688 0.270251 0.384823 0.348313 0.339838 0.301688 0.426811 0.384823 0.339844 0.285882 0.4375 0.385413 0.285882 0.241979 0.385413 0.339838 0.385413 0.339838 0.474474 0.426811 0.4375 0.385413 0.527344 0.474474 0 0 0.0944017 0.0842868 0 0 0.0842868 0.0760789 0.0842868 0.0760789 0.166252 0.150476 0.0944017 0.0842868 0.185283 0.166252 0 0 0.0760789 0.0691447 0 0 0.0691447 0.0631329 0.0691447 0.0631329 0.136991 0.125218 0.0760789 0.0691447 0.150476 0.136991 0.150476 0.136991 0.221756 0.202377 0.136991 0.125218 0.202377 0.18529 0.202377 0.18529 0.264364 0.24252 0.221756 0.202377 0.288863 0.264364 0.185283 0.166252 0.270251 0.244067 0.166252 0.150476 0.244067 0.221756 0.244067 0.221756 0.316601 0.288863 0.270251 0.244067 0.348313 0.316601 0.348313 0.316601 0.419352 0.383304 0.316601 0.288863 0.383304 0.351114 0.383304 0.351114 0.443959 0.408099 0.419352 0.383304 0.483519 0.443959 0.288863 0.264364 0.351114 0.322253 0.264364 0.24252 0.322253 0.296247 0.322253 0.296247 0.375558 0.345961 0.351114 0.322253 0.408099 0.375558 0.408099 0.375558 0.459577 0.423944 0.375558 0.345961 0.423944 0.391282 0.423944 0.391282 0.467177 0.431929 0.459577 0.423944 0.505395 0.467177 0.483519 0.443959 0.540944 0.498482 0.443959 0.408099 0.498482 0.459577 0.498482 0.459577 0.546827 0.505395 0.540944 0.498482 0.5917 0.546827 0.527344 0.474474 0.609375 0.554838 0.474474 0.426811 0.554838 0.504895 0.554838 0.504895 0.627157 0.574969 0.609375 0.554838 0.683594 0.627157 0.426811 0.384823 0.504895 0.459762 0.384823 0.348313 0.459762 0.419352 0.459762 0.419352 0.527114 0.483519 0.504895 0.459762 0.574969 0.527114 0.574969 0.527114 0.637434 0.587206 0.527114 0.483519 0.587206 0.540944 0.587206 0.540944 0.640205 0.5917 0.637434 0.587206 0.692479 0.640205 0.683594 0.627157 0.75 0.691703 0.627157 0.574969 0.691703 0.637434 0.691703 0.637434 0.7486 0.692479 0.75 0.691703 0.808594 0.7486 0 0 0.0631329 0.0578282 0 0 0.0578282 0.0530876 0.0578282 0.0530876 0.114784 0.105431 0.0631329 0.0578282 0.125218 0.114784 0 0 0.0530876 0.0488105 0 0 0.0488105 0.0449228 0.0488105 0.0449228 0.0969763 0.0892795 0.0530876 0.0488105 0.105431 0.0969763 0.105431 0.0969763 0.156323 0.143877 0.0969763 0.0892795 0.143877 0.132522 0.143877 0.132522 0.18894 0.174138 0.156323 0.143877 0.205117 0.18894 0.125218 0.114784 0.18529 0.170046 0.114784 0.105431 0.170046 0.156323 0.170046 0.156323 0.222887 0.205117 0.18529 0.170046 0.24252 0.222887 0 0 0.0449228 0.0413672 0 0 0.0413672 0.0380982 0.0413672 0.0380982 0.0822327 0.0757486 0.0449228 0.0413672 0.0892795 0.0822327 0 0 0.0380982 0.0350783 0 0 0.0350783 0.0322762 0.0350783 0.0322762 0.0697549 0.0641907 0.0380982 0.0350783 0.0757486 0.0697549 0.0757486 0.0697549 0.112514 0.103637 0.0697549 0.0641907 0.103637 0.0953887 0.103637 0.0953887 0.136347 0.125529 0.112514 0.103637 0.147979 0.136347 0.0892795 0.0822327 0.132522 0.122109 0.0822327 0.0757486 0.122109 0.112514 0.122109 0.112514 0.160534 0.147979 0.132522 0.122109 0.174138 0.160534 0.174138 0.160534 0.213659 0.197083 0.160534 0.147979 0.197083 0.181756 0.197083 0.181756 0.231373 0.213492 0.213659 0.197083 0.250671 0.231373 0.147979 0.136347 0.181756 0.167534 0.136347 0.125529 0.167534 0.154291 0.167534 0.154291 0.196872 0.181376 0.181756 0.167534 0.213492 0.196872 0.213492 0.196872 0.242872 0.22407 0.196872 0.181376 0.22407 0.206514 0.22407 0.206514 0.24887 0.229464 0.242872 0.22407 0.269623 0.24887 0.250671 0.231373 0.284816 0.263067 0.231373 0.213492 0.263067 0.242872 0.263067 0.242872 0.291875 0.269623 0.284816 0.263067 0.315791 0.291875 0.24252 0.222887 0.296247 0.272691 0.222887 0.205117 0.272691 0.251251 0.272691 0.251251 0.318959 0.294249 0.296247 0.272691 0.345961 0.318959 0.205117 0.18894 0.251251 0.23165 0.18894 0.174138 0.23165 0.213659 0.23165 0.213659 0.271563 0.250671 0.251251 0.23165 0.294249 0.271563 0.294249 0.271563 0.333721 0.308301 0.271563 0.250671 0.308301 0.284816 0.308301 0.284816 0.341551 0.315791 0.333721 0.308301 0.369351 0.341551 0.345961 0.318959 0.391282 0.361298 0.318959 0.294249 0.361298 0.333721 0.361298 0.333721 0.399401 0.369351 0.391282 0.361298 0.431929 0.399401 0.431929 0.399401 0.467694 0.433031 0.399401 0.369351 0.433031 0.40089 0.433031 0.40089 0.462012 0.428143 0.467694 0.433031 0.498423 0.462012 0.369351 0.341551 0.40089 0.37106 0.341551 0.315791 0.37106 0.343344 0.37106 0.343344 0.396626 0.367271 0.40089 0.37106 0.428143 0.396626 0.428143 0.396626 0.450964 0.418091 0.396626 0.367271 0.418091 0.387411 0.418091 0.387411 0.435339 0.403643 0.450964 0.418091 0.469243 0.435339 0.498423 0.462012 0.524003 0.486208 0.462012 0.428143 0.486208 0.450964 0.486208 0.450964 0.505525 0.469243 0.524003 0.486208 0.544353 0.505525 0.315791 0.291875 0.343344 0.317552 0.291875 0.269623 0.317552 0.293509 0.317552 0.293509 0.339898 0.314336 0.343344 0.317552 0.367271 0.339898 0.269623 0.24887 0.293509 0.271049 0.24887 0.229464 0.271049 0.250018 0.271049 0.250018 0.29042 0.267996 0.293509 0.271049 0.314336 0.29042 0.314336 0.29042 0.331944 0.306829 0.29042 0.267996 0.306829 0.283251 0.306829 0.283251 0.320155 0.295666 0.331944 0.306829 0.346211 0.320155 0.367271 0.339898 0.387411 0.358751 0.339898 0.314336 0.358751 0.331944 0.358751 0.331944 0.373988 0.346211 0.387411 0.358751 0.403643 0.373988 0.403643 0.373988 0.415883 0.385521 0.373988 0.346211 0.385521 0.357048 0.385521 0.357048 0.393294 0.364396 0.415883 0.385521 0.424078 0.393294 0.346211 0.320155 0.357048 0.330309 0.320155 0.295666 0.330309 0.305153 0.330309 0.305153 0.337232 0.311654 0.357048 0.330309 0.364396 0.337232 0.364396 0.337232 0.368229 0.340895 0.337232 0.311654 0.340895 0.315137 0.340895 0.315137 0.341298 0.3156 0.368229 0.340895 0.368549 0.341298 0.424078 0.393294 0.428209 0.397284 0.393294 0.364396 0.397284 0.368229 0.397284 0.368229 0.397497 0.368549 0.428209 0.397284 0.428287 0.397497 0.544353 0.505525 0.559426 0.519901 0.505525 0.469243 0.519901 0.48291 0.519901 0.48291 0.529304 0.491925 0.559426 0.519901 0.569197 0.529304 0.469243 0.435339 0.48291 0.448292 0.435339 0.403643 0.448292 0.415883 0.448292 0.415883 0.456902 0.424078 0.48291 0.448292 0.491925 0.456902 0.491925 0.456902 0.496278 0.461156 0.456902 0.424078 0.461156 0.428209 0.461156 0.428209 0.461068 0.428287 0.496278 0.461156 0.495991 0.461068 0.569197 0.529304 0.57367 0.533731 0.529304 0.491925 0.533731 0.496278 0.533731 0.496278 0.533208 0.495991 0.57367 0.533731 0.572874 0.533208 0.808594 0.7486 0.859375 0.797905 0.7486 0.692479 0.797905 0.740192 0.797905 0.740192 0.839645 0.780614 0.859375 0.797905 0.902344 0.839645 0.692479 0.640205 0.740192 0.68619 0.640205 0.5917 0.68619 0.635819 0.68619 0.635819 0.725197 0.673311 0.740192 0.68619 0.780614 0.725197 0.780614 0.725197 0.813766 0.757241 0.725197 0.673311 0.757241 0.704174 0.757241 0.704174 0.782328 0.728403 0.813766 0.757241 0.839656 0.782328 0.902344 0.839645 0.9375 0.873832 0.839645 0.780614 0.873832 0.813766 0.873832 0.813766 0.900473 0.839656 0.9375 0.873832 0.964844 0.900473 0.5917 0.546827 0.635819 0.588958 0.546827 0.505395 0.588958 0.545446 0.588958 0.545446 0.624843 0.579652 0.635819 0.588958 0.673311 0.624843 0.505395 0.467177 0.545446 0.505094 0.467177 0.431929 0.505094 0.467694 0.505094 0.467694 0.537573 0.498423 0.545446 0.505094 0.579652 0.537573 0.579652 0.537573 0.607957 0.564528 0.537573 0.498423 0.564528 0.524003 0.564528 0.524003 0.585898 0.544353 0.607957 0.564528 0.63032 0.585898 0.673311 0.624843 0.704174 0.654456 0.624843 0.579652 0.654456 0.607957 0.654456 0.607957 0.677775 0.63032 0.704174 0.654456 0.728403 0.677775 0.728403 0.677775 0.745997 0.69479 0.677775 0.63032 0.69479 0.646719 0.69479 0.646719 0.705504 0.657149 0.745997 0.69479 0.756964 0.705504 0.63032 0.585898 0.646719 0.601647 0.585898 0.544353 0.601647 0.559426 0.601647 0.559426 0.611761 0.569197 0.646719 0.601647 0.657149 0.611761 0.657149 0.611761 0.661622 0.61625 0.611761 0.569197 0.61625 0.57367 0.61625 0.57367 0.615145 0.572874 0.661622 0.61625 0.660172 0.615145 0.756964 0.705504 0.761319 0.709932 0.705504 0.657149 0.709932 0.661622 0.709932 0.661622 0.708106 0.660172 0.761319 0.709932 0.759092 0.708106 0.964844 0.900473 0.984375 0.919571 0.900473 0.839656 0.919571 0.85829 0.919571 0.85829 0.931131 0.869676 0.984375 0.919571 0.996094 0.931131 0.839656 0.782328 0.85829 0.800462 0.782328 0.728403 0.800462 0.745997 0.800462 0.745997 0.811651 0.756964 0.85829 0.800462 0.869676 0.811651 0.869676 0.811651 0.873824 0.815911 0.811651 0.756964 0.815911 0.761319 0.815911 0.761319 0.813266 0.759092 0.873824 0.815911 0.870752 0.813266 0.996094 0.931131 1 0.935159 0.931131 0.869676 0.935159 0.873824 0.935159 0.873824 0.931663 0.870752 1 0.935159 0.996094 0.931663 0 0 0.0322762 0.0296647 0 0 0.0296647 0.0272198 0.0296647 0.0272198 0.0590029 0.0541446 0.0322762 0.0296647 0.0641907 0.0590029 0 0 0.0272198 0.0249201 0 0 0.0249201 0.0227458 0.0249201 0.0227458 0.0495735 0.0452507 0.0272198 0.0249201 0.0541446 0.0495735 0.0541446 0.0495735 0.080484 0.0736976 0.0495735 0.0452507 0.0736976 0.0672777 0.0736976 0.0672777 0.0970381 0.0885963 0.080484 0.0736976 0.105958 0.0970381 0.0641907 0.0590029 0.0953887 0.0876938 0.0590029 0.0541446 0.0876938 0.080484 0.0876938 0.080484 0.115428 0.105958 0.0953887 0.0876938 0.125529 0.115428 0 0 0.0227458 0.0206784 0 0 0.0206784 0.0187004 0.0206784 0.0187004 0.0411399 0.0372062 0.0227458 0.0206784 0.0452507 0.0411399 0 0 0.0187004 0.0167948 0 0 0.0167948 0.0149449 0.0167948 0.0149449 0.0334161 0.0297362 0.0187004 0.0167948 0.0372062 0.0334161 0.0372062 0.0334161 0.0553254 0.0496923 0.0334161 0.0297362 0.0496923 0.0442222 0.0496923 0.0442222 0.0654568 0.0582552 0.0553254 0.0496923 0.0728713 0.0654568 0.0452507 0.0411399 0.0672777 0.0611707 0.0411399 0.0372062 0.0611707 0.0553254 0.0611707 0.0553254 0.0805629 0.0728713 0.0672777 0.0611707 0.0885963 0.0805629 0.0885963 0.0805629 0.108987 0.0991176 0.0805629 0.0728713 0.0991176 0.0896648 0.0991176 0.0896648 0.116647 0.105536 0.108987 0.0991176 0.128241 0.116647 0.0728713 0.0654568 0.0896648 0.0805493 0.0654568 0.0582552 0.0805493 0.071693 0.0805493 0.071693 0.094818 0.0844009 0.0896648 0.0805493 0.105536 0.094818 0.105536 0.094818 0.120329 0.108122 0.094818 0.0844009 0.108122 0.0962532 0.108122 0.0962532 0.12033 0.107134 0.120329 0.108122 0.133897 0.12033 0.128241 0.116647 0.146169 0.132977 0.116647 0.105536 0.132977 0.120329 0.132977 0.120329 0.147948 0.133897 0.146169 0.132977 0.162595 0.147948 0.125529 0.115428 0.154291 0.141913 0.115428 0.105958 0.141913 0.130299 0.141913 0.130299 0.166876 0.153257 0.154291 0.141913 0.181376 0.166876 0.105958 0.0970381 0.130299 0.119352 0.0970381 0.0885963 0.119352 0.108987 0.119352 0.108987 0.140413 0.128241 0.130299 0.119352 0.153257 0.140413 0.153257 0.140413 0.174605 0.160009 0.140413 0.128241 0.160009 0.146169 0.160009 0.146169 0.177952 0.162595 0.174605 0.160009 0.194134 0.177952 0.181376 0.166876 0.206514 0.190067 0.166876 0.153257 0.190067 0.174605 0.190067 0.174605 0.211263 0.194134 0.206514 0.190067 0.229464 0.211263 0 0 0.0149449 0.0131339 0 0 0.0131339 0.0113446 0.0131339 0.0113446 0.0261334 0.0225736 0.0149449 0.0131339 0.0297362 0.0261334 0 0 0.0113446 0.00955941 0 0 0.00955941 0.00775982 0.00955941 0.00775982 0.0190217 0.015441 0.0113446 0.00955941 0.0225736 0.0190217 0.0225736 0.0190217 0.0335727 0.028291 0.0190217 0.015441 0.028291 0.0229659 0.028291 0.0229659 0.0372736 0.0302586 0.0335727 0.028291 0.0442307 0.0372736 0.0297362 0.0261334 0.0442222 0.0388658 0.0261334 0.0225736 0.0388658 0.0335727 0.0388658 0.0335727 0.0512018 0.0442307 0.0442222 0.0388658 0.0582552 0.0512018 0 0 0.00775982 0.00592615 0 0 0.00592615 0.00403728 0.00592615 0.00403728 0.0117924 0.00803378 0.00775982 0.00592615 0.015441 0.0117924 0 0 0.00403728 0.00207026 0 0 0.00207026 0 0.00207026 0 0.00411963 0 0.00403728 0.00207026 0.00803378 0.00411963 0.00803378 0.00411963 0.0119492 0.00612746 0.00411963 0 0.00612746 0 0.00612746 0 0.00807359 0 0.0119492 0.00612746 0.0157442 0.00807359 0.015441 0.0117924 0.0229659 0.0175394 0.0117924 0.00803378 0.0175394 0.0119492 0.0175394 0.0119492 0.0231095 0.0157442 0.0229659 0.0175394 0.0302586 0.0231095 0.0302586 0.0231095 0.0372461 0.0284469 0.0231095 0.0157442 0.0284469 0.0193809 0.0284469 0.0193809 0.0334985 0.022823 0.0372461 0.0284469 0.0438588 0.0334985 0.0157442 0.00807359 0.0193809 0.00993857 0.00807359 0 0.00993857 0 0.00993857 0 0.0117039 0 0.0193809 0.00993857 0.022823 0.0117039 0.022823 0.0117039 0.0260368 0.0133521 0.0117039 0 0.0133521 0 0.0133521 0 0.0148673 0 0.0260368 0.0133521 0.0289909 0.0148673 0.0438588 0.0334985 0.0500316 0.0382145 0.0334985 0.022823 0.0382145 0.0260368 0.0382145 0.0260368 0.042549 0.0289909 0.0500316 0.0382145 0.0557042 0.042549 0.0582552 0.0512018 0.071693 0.0630169 0.0512018 0.0442307 0.0630169 0.0544402 0.0630169 0.0544402 0.0741928 0.0640994 0.071693 0.0630169 0.0844009 0.0741928 0.0442307 0.0372736 0.0544402 0.0458793 0.0372736 0.0302586 0.0458793 0.0372461 0.0458793 0.0372461 0.0540225 0.0438588 0.0544402 0.0458793 0.0640994 0.0540225 0.0640994 0.0540225 0.0731128 0.0616227 0.0540225 0.0438588 0.0616227 0.0500316 0.0616227 0.0500316 0.0686058 0.0557042 0.0731128 0.0616227 0.0813926 0.0686058 0.0844009 0.0741928 0.0962532 0.0846192 0.0741928 0.0640994 0.0846192 0.0731128 0.0846192 0.0731128 0.0941943 0.0813926 0.0962532 0.0846192 0.107134 0.0941943 0.107134 0.0941943 0.116939 0.102826 0.0941943 0.0813926 0.102826 0.088859 0.102826 0.088859 0.110433 0.0954417 0.116939 0.102826 0.125577 0.110433 0.0813926 0.0686058 0.088859 0.0749047 0.0686058 0.0557042 0.0749047 0.060822 0.0749047 0.060822 0.0804597 0.0653365 0.088859 0.0749047 0.0954417 0.0804597 0.0954417 0.0804597 0.10108 0.0852192 0.0804597 0.0653365 0.0852192 0.0692058 0.0852192 0.0692058 0.0891403 0.0723946 0.10108 0.0852192 0.105722 0.0891403 0.125577 0.110433 0.132968 0.116946 0.110433 0.0954417 0.116946 0.10108 0.116946 0.10108 0.122305 0.105722 0.132968 0.116946 0.139045 0.122305 0.0557042 0.042549 0.060822 0.0464602 0.042549 0.0289909 0.0464602 0.0316568 0.0464602 0.0316568 0.049911 0.0340092 0.060822 0.0464602 0.0653365 0.049911 0.0289909 0.0148673 0.0316568 0.0162347 0.0148673 0 0.0162347 0 0.0162347 0 0.0174414 0 0.0316568 0.0162347 0.0340092 0.0174414 0.0340092 0.0174414 0.0360261 0.0184762 0.0174414 0 0.0184762 0 0.0184762 0 0.0193295 0 0.0360261 0.0184762 0.0376892 0.0193295 0.0653365 0.049911 0.0692058 0.0528693 0.049911 0.0340092 0.0528693 0.0360261 0.0528693 0.0360261 0.0553081 0.0376892 0.0692058 0.0528693 0.0723946 0.0553081 0.0723946 0.0553081 0.0748749 0.0572058 0.0553081 0.0376892 0.0572058 0.0389837 0.0572058 0.0389837 0.0585463 0.0398986 0.0748749 0.0572058 0.0766258 0.0585463 0.0376892 0.0193295 0.0389837 0.0199939 0.0193295 0 0.0199939 0 0.0199939 0 0.0204635 0 0.0389837 0.0199939 0.0398986 0.0204635 0.0398986 0.0204635 0.0404267 0.0207348 0.0204635 0 0.0207348 0 0.0207348 0 0.0208058 0 0.0404267 0.0207348 0.0405645 0.0208058 0.0766258 0.0585463 0.0776336 0.0593192 0.0585463 0.0398986 0.0593192 0.0404267 0.0593192 0.0404267 0.0595194 0.0405645 0.0776336 0.0593192 0.0778919 0.0595194 0.139045 0.122305 0.143758 0.126465 0.122305 0.105722 0.126465 0.109328 0.126465 0.109328 0.129392 0.111869 0.143758 0.126465 0.147069 0.129392 0.105722 0.0891403 0.109328 0.0921884 0.0891403 0.0723946 0.0921884 0.0748749 0.0921884 0.0748749 0.0943381 0.0766258 0.109328 0.0921884 0.111869 0.0943381 0.111869 0.0943381 0.113324 0.0955729 0.0943381 0.0766258 0.0955729 0.0776336 0.0955729 0.0776336 0.0958851 0.0778919 0.113324 0.0955729 0.113686 0.0958851 0.147069 0.129392 0.148952 0.131063 0.129392 0.111869 0.131063 0.113324 0.131063 0.113324 0.131469 0.113686 0.148952 0.131063 0.149398 0.131469 0.229464 0.211263 0.250018 0.230269 0.211263 0.194134 0.230269 0.211664 0.230269 0.211664 0.246915 0.227035 0.250018 0.230269 0.267996 0.246915 0.194134 0.177952 0.211664 0.194071 0.177952 0.162595 0.194071 0.177364 0.194071 0.177364 0.20822 0.190339 0.211664 0.194071 0.227035 0.20822 0.227035 0.20822 0.240116 0.220276 0.20822 0.190339 0.220276 0.201407 0.220276 0.201407 0.230138 0.210472 0.240116 0.220276 0.250799 0.230138 0.267996 0.246915 0.283251 0.261061 0.246915 0.227035 0.261061 0.240116 0.261061 0.240116 0.272595 0.250799 0.283251 0.261061 0.295666 0.272595 0.162595 0.147948 0.177364 0.161418 0.147948 0.133897 0.161418 0.146113 0.161418 0.146113 0.173262 0.156861 0.177364 0.161418 0.190339 0.173262 0.133897 0.12033 0.146113 0.131327 0.12033 0.107134 0.131327 0.116939 0.131327 0.116939 0.141009 0.125577 0.146113 0.131327 0.156861 0.141009 0.156861 0.141009 0.166045 0.149288 0.141009 0.125577 0.149288 0.132968 0.149288 0.132968 0.156091 0.139045 0.166045 0.149288 0.173585 0.156091 0.190339 0.173262 0.201407 0.183374 0.173262 0.156861 0.183374 0.166045 0.183374 0.166045 0.191667 0.173585 0.201407 0.183374 0.210472 0.191667 0.210472 0.191667 0.217463 0.198072 0.191667 0.173585 0.198072 0.179418 0.198072 0.179418 0.202542 0.183498 0.217463 0.198072 0.222327 0.202542 0.173585 0.156091 0.179418 0.161361 0.156091 0.139045 0.161361 0.143758 0.161361 0.143758 0.165055 0.147069 0.179418 0.161361 0.183498 0.165055 0.183498 0.165055 0.185796 0.167147 0.165055 0.147069 0.167147 0.148952 0.167147 0.148952 0.167626 0.149398 0.185796 0.167147 0.186304 0.167626 0.222327 0.202542 0.225033 0.205045 0.202542 0.183498 0.205045 0.185796 0.205045 0.185796 0.205572 0.186304 0.225033 0.205045 0.225571 0.205572 0.295666 0.272595 0.305153 0.281433 0.272595 0.250799 0.281433 0.259005 0.281433 0.259005 0.287516 0.264675 0.305153 0.281433 0.311654 0.287516 0.250799 0.230138 0.259005 0.237728 0.230138 0.210472 0.237728 0.217463 0.237728 0.217463 0.242992 0.222327 0.259005 0.237728 0.264675 0.242992 0.264675 0.242992 0.267779 0.245898 0.242992 0.222327 0.245898 0.225033 0.245898 0.225033 0.246437 0.225571 0.267779 0.245898 0.268307 0.246437 0.311654 0.287516 0.315137 0.290812 0.287516 0.264675 0.290812 0.267779 0.290812 0.267779 0.291316 0.268307 0.315137 0.290812 0.3156 0.291316 0.3156 0.291316 0.313063 0.289045 0.291316 0.268307 0.289045 0.266276 0.289045 0.266276 0.284043 0.261722 0.313063 0.289045 0.307576 0.284043 0.268307 0.246437 0.266276 0.244622 0.246437 0.225571 0.244622 0.223951 0.244622 0.223951 0.240485 0.220202 0.266276 0.244622 0.261722 0.240485 0.261722 0.240485 0.254706 0.23408 0.240485 0.220202 0.23408 0.214373 0.23408 0.214373 0.225482 0.206531 0.254706 0.23408 0.245309 0.225482 0.307576 0.284043 0.29921 0.276375 0.284043 0.261722 0.276375 0.254706 0.276375 0.254706 0.26613 0.245309 0.29921 0.276375 0.288063 0.26613 0.225571 0.205572 0.223951 0.20413 0.205572 0.186304 0.20413 0.185025 0.20413 0.185025 0.200745 0.181983 0.223951 0.20413 0.220202 0.200745 0.186304 0.167626 0.185025 0.166498 0.167626 0.149398 0.166498 0.14841 0.166498 0.14841 0.163782 0.146005 0.185025 0.166498 0.181983 0.163782 0.181983 0.163782 0.177216 0.159511 0.163782 0.146005 0.159511 0.142212 0.159511 0.142212 0.153734 0.137075 0.177216 0.159511 0.170778 0.153734 0.220202 0.200745 0.214373 0.195461 0.200745 0.181983 0.195461 0.177216 0.195461 0.177216 0.188336 0.170778 0.214373 0.195461 0.206531 0.188336 0.206531 0.188336 0.196758 0.179448 0.188336 0.170778 0.179448 0.162738 0.179448 0.162738 0.168887 0.153177 0.196758 0.179448 0.185157 0.168887 0.170778 0.153734 0.162738 0.146511 0.153734 0.137075 0.146511 0.130648 0.146511 0.130648 0.137918 0.122995 0.162738 0.146511 0.153177 0.137918 0.153177 0.137918 0.142192 0.128038 0.137918 0.122995 0.128038 0.114194 0.128038 0.114194 0.11697 0.10433 0.142192 0.128038 0.129889 0.11697 0.185157 0.168887 0.171841 0.15676 0.168887 0.153177 0.15676 0.142192 0.15676 0.142192 0.143183 0.1