<?xml version="1.0" encoding="UTF-8"?>
<VTKFile type="UnstructuredGrid" version="0.1" byte_order="LittleEndian" compressor="vtkZLibDataCompressor">
    <UnstructuredGrid>
        <Piece NumberOfPoints="1728" NumberOfCells="576">
            <Points>
                <DataArray type="Float64" Name="Array" NumberOfComponents="3" format="ascii" RangeMin="0" RangeMax="32.491498641591797">23.7072 0 0 24.202 0 0 23.9387 0.40623 0 24.6969 0 0 24.4336 0.40623 0 24.202 0 0 24.1703 0.812459 0 23.9387 0.40623 0 24.4336 0.40623 0 24.202 0 0 24.4336 0.40623 0 23.9387 0.40623 0 25.6865 0 0 25.4232 0.40623 0 25.1917 0 0 25.1599 0.812459 0 24.9284 0.40623 0 25.4232 0.40623 0 24.6969 0 0 25.1917 0 0 24.9284 0.40623 0 25.4232 0.40623 0 24.9284 0.40623 0 25.1917 0 0 24.6334 1.62492 0 24.4018 1.21869 0 24.8966 1.21869 0 24.1703 0.812459 0 24.6651 0.812459 0 24.4018 1.21869 0 25.1599 0.812459 0 24.8966 1.21869 0 24.6651 0.812459 0 24.4018 1.21869 0 24.6651 0.812459 0 24.8966 1.21869 0 24.6969 0 0 24.9284 0.40623 0 24.4336 0.40623 0 25.1599 0.812459 0 24.6651 0.812459 0 24.9284 0.40623 0 24.1703 0.812459 0 24.4336 0.40623 0 24.6651 0.812459 0 24.9284 0.40623 0 24.6651 0.812459 0 24.4336 0.40623 0 27.6658 0 0 27.4026 0.40623 0 27.171 0 0 27.1393 0.812459 0 26.9077 0.40623 0 27.4026 0.40623 0 26.6762 0 0 27.171 0 0 26.9077 0.40623 0 27.4026 0.40623 0 26.9077 0.40623 0 27.171 0 0 26.6127 1.62492 0 26.3811 1.21869 0 26.876 1.21869 0 26.1496 0.812459 0 26.6444 0.812459 0 26.3811 1.21869 0 27.1393 0.812459 0 26.876 1.21869 0 26.6444 0.812459 0 26.3811 1.21869 0 26.6444 0.812459 0 26.876 1.21869 0 25.6865 0 0 26.1814 0 0 25.9181 0.40623 0 26.6762 0 0 26.4129 0.40623 0 26.1814 0 0 26.1496 0.812459 0 25.9181 0.40623 0 26.4129 0.40623 0 26.1814 0 0 26.4129 0.40623 0 25.9181 0.40623 0 27.1393 0.812459 0 26.6444 0.812459 0 26.9077 0.40623 0 26.1496 0.812459 0 26.4129 0.40623 0 26.6444 0.812459 0 26.6762 0 0 26.9077 0.40623 0 26.4129 0.40623 0 26.6444 0.812459 0 26.4129 0.40623 0 26.9077 0.40623 0 25.5595 3.24984 0 25.328 2.84361 0 25.8228 2.84361 0 25.0964 2.43738 0 25.5913 2.43738 0 25.328 2.84361 0 26.0861 2.43738 0 25.8228 2.84361 0 25.5913 2.43738 0 25.328 2.84361 0 25.5913 2.43738 0 25.8228 2.84361 0 24.6334 1.62492 0 25.1282 1.62492 0 24.8649 2.03115 0 25.623 1.62492 0 25.3597 2.03115 0 25.1282 1.62492 0 25.0964 2.43738 0 24.8649 2.03115 0 25.3597 2.03115 0 25.1282 1.62492 0 25.3597 2.03115 0 24.8649 2.03115 0 26.6127 1.62492 0 26.3494 2.03115 0 26.1179 1.62492 0 26.0861 2.43738 0 25.8546 2.03115 0 26.3494 2.03115 0 25.623 1.62492 0 26.1179 1.62492 0 25.8546 2.03115 0 26.3494 2.03115 0 25.8546 2.03115 0 26.1179 1.62492 0 25.0964 2.43738 0 25.3597 2.03115 0 25.5913 2.43738 0 25.623 1.62492 0 25.8546 2.03115 0 25.3597 2.03115 0 26.0861 2.43738 0 25.5913 2.43738 0 25.8546 2.03115 0 25.3597 2.03115 0 25.8546 2.03115 0 25.5913 2.43738 0 25.6865 0 0 25.9181 0.40623 0 25.4232 0.40623 0 26.1496 0.812459 0 25.6548 0.812459 0 25.9181 0.40623 0 25.1599 0.812459 0 25.4232 0.40623 0 25.6548 0.812459 0 25.9181 0.40623 0 25.6548 0.812459 0 25.4232 0.40623 0 26.6127 1.62492 0 26.1179 1.62492 0 26.3811 1.21869 0 25.623 1.62492 0 25.8863 1.21869 0 26.1179 1.62492 0 26.1496 0.812459 0 26.3811 1.21869 0 25.8863 1.21869 0 26.1179 1.62492 0 25.8863 1.21869 0 26.3811 1.21869 0 24.6334 1.62492 0 24.8966 1.21869 0 25.1282 1.62492 0 25.1599 0.812459 0 25.3915 1.21869 0 24.8966 1.21869 0 25.623 1.62492 0 25.1282 1.62492 0 25.3915 1.21869 0 24.8966 1.21869 0 25.3915 1.21869 0 25.1282 1.62492 0 26.1496 0.812459 0 25.8863 1.21869 0 25.6548 0.812459 0 25.623 1.62492 0 25.3915 1.21869 0 25.8863 1.21869 0 25.1599 0.812459 0 25.6548 0.812459 0 25.3915 1.21869 0 25.8863 1.21869 0 25.3915 1.21869 0 25.6548 0.812459 0 27.6658 0 0 28.1784 0 0 27.9036 0.429576 0 28.6909 0 0 28.4161 0.429576 0 28.1784 0 0 28.1413 0.859152 0 27.9036 0.429576 0 28.4161 0.429576 0 28.1784 0 0 28.4161 0.429576 0 27.9036 0.429576 0 29.7159 0 0 29.4411 0.429576 0 29.2034 0 0 29.1664 0.859152 0 28.9286 0.429576 0 29.4411 0.429576 0 28.6909 0 0 29.2034 0 0 28.9286 0.429576 0 29.4411 0.429576 0 28.9286 0.429576 0 29.2034 0 0 28.6168 1.7183 0 28.3791 1.28873 0 28.8916 1.28873 0 28.1413 0.859152 0 28.6539 0.859152 0 28.3791 1.28873 0 29.1664 0.859152 0 28.8916 1.28873 0 28.6539 0.859152 0 28.3791 1.28873 0 28.6539 0.859152 0 28.8916 1.28873 0 28.6909 0 0 28.9286 0.429576 0 28.4161 0.429576 0 29.1664 0.859152 0 28.6539 0.859152 0 28.9286 0.429576 0 28.1413 0.859152 0 28.4161 0.429576 0 28.6539 0.859152 0 28.9286 0.429576 0 28.6539 0.859152 0 28.4161 0.429576 0 31.7659 0 0 31.4912 0.429576 0 31.2534 0 0 31.2164 0.859152 0 30.9787 0.429576 0 31.4912 0.429576 0 30.7409 0 0 31.2534 0 0 30.9787 0.429576 0 31.4912 0.429576 0 30.9787 0.429576 0 31.2534 0 0 30.6669 1.7183 0 30.4291 1.28873 0 30.9416 1.28873 0 30.1914 0.859152 0 30.7039 0.859152 0 30.4291 1.28873 0 31.2164 0.859152 0 30.9416 1.28873 0 30.7039 0.859152 0 30.4291 1.28873 0 30.7039 0.859152 0 30.9416 1.28873 0 29.7159 0 0 30.2284 0 0 29.9536 0.429576 0 30.7409 0 0 30.4661 0.429576 0 30.2284 0 0 30.1914 0.859152 0 29.9536 0.429576 0 30.4661 0.429576 0 30.2284 0 0 30.4661 0.429576 0 29.9536 0.429576 0 31.2164 0.859152 0 30.7039 0.859152 0 30.9787 0.429576 0 30.1914 0.859152 0 30.4661 0.429576 0 30.7039 0.859152 0 30.7409 0 0 30.9787 0.429576 0 30.4661 0.429576 0 30.7039 0.859152 0 30.4661 0.429576 0 30.9787 0.429576 0 29.5678 3.43661 0 29.3301 3.00703 0 29.8426 3.00703 0 29.0923 2.57746 0 29.6049 2.57746 0 29.3301 3.00703 0 30.1174 2.57746 0 29.8426 3.00703 0 29.6049 2.57746 0 29.3301 3.00703 0 29.6049 2.57746 0 29.8426 3.00703 0 28.6168 1.7183 0 29.1294 1.7183 0 28.8546 2.14788 0 29.6419 1.7183 0 29.3671 2.14788 0 29.1294 1.7183 0 29.0923 2.57746 0 28.8546 2.14788 0 29.3671 2.14788 0 29.1294 1.7183 0 29.3671 2.14788 0 28.8546 2.14788 0 30.6669 1.7183 0 30.3921 2.14788 0 30.1544 1.7183 0 30.1174 2.57746 0 29.8796 2.14788 0 30.3921 2.14788 0 29.6419 1.7183 0 30.1544 1.7183 0 29.8796 2.14788 0 30.3921 2.14788 0 29.8796 2.14788 0 30.1544 1.7183 0 29.0923 2.57746 0 29.3671 2.14788 0 29.6049 2.57746 0 29.6419 1.7183 0 29.8796 2.14788 0 29.3671 2.14788 0 30.1174 2.57746 0 29.6049 2.57746 0 29.8796 2.14788 0 29.3671 2.14788 0 29.8796 2.14788 0 29.6049 2.57746 0 29.7159 0 0 29.9536 0.429576 0 29.4411 0.429576 0 30.1914 0.859152 0 29.6789 0.859152 0 29.9536 0.429576 0 29.1664 0.859152 0 29.4411 0.429576 0 29.6789 0.859152 0 29.9536 0.429576 0 29.6789 0.859152 0 29.4411 0.429576 0 30.6669 1.7183 0 30.1544 1.7183 0 30.4291 1.28873 0 29.6419 1.7183 0 29.9166 1.28873 0 30.1544 1.7183 0 30.1914 0.859152 0 30.4291 1.28873 0 29.9166 1.28873 0 30.1544 1.7183 0 29.9166 1.28873 0 30.4291 1.28873 0 28.6168 1.7183 0 28.8916 1.28873 0 29.1294 1.7183 0 29.1664 0.859152 0 29.4041 1.28873 0 28.8916 1.28873 0 29.6419 1.7183 0 29.1294 1.7183 0 29.4041 1.28873 0 28.8916 1.28873 0 29.4041 1.28873 0 29.1294 1.7183 0 30.1914 0.859152 0 29.9166 1.28873 0 29.6789 0.859152 0 29.6419 1.7183 0 29.4041 1.28873 0 29.9166 1.28873 0 29.1664 0.859152 0 29.6789 0.859152 0 29.4041 1.28873 0 29.9166 1.28873 0 29.4041 1.28873 0 29.6789 0.859152 0 25.5595 3.24984 0 25.8228 2.84361 0 26.0606 3.27318 0 26.0861 2.43738 0 26.3239 2.86695 0 25.8228 2.84361 0 26.5616 3.29653 0 26.0606 3.27318 0 26.3239 2.86695 0 25.8228 2.84361 0 26.3239 2.86695 0 26.0606 3.27318 0 26.6127 1.62492 0 26.8504 2.05449 0 26.3494 2.03115 0 27.0882 2.48407 0 26.5871 2.46072 0 26.8504 2.05449 0 26.0861 2.43738 0 26.3494 2.03115 0 26.5871 2.46072 0 26.8504 2.05449 0 26.5871 2.46072 0 26.3494 2.03115 0 27.5637 3.34322 0 27.0626 3.31988 0 27.3259 2.91365 0 26.5616 3.29653 0 26.8249 2.8903 0 27.0626 3.31988 0 27.0882 2.48407 0 27.3259 2.91365 0 26.8249 2.8903 0 27.0626 3.31988 0 26.8249 2.8903 0 27.3259 2.91365 0 26.0861 2.43738 0 26.5871 2.46072 0 26.3239 2.86695 0 27.0882 2.48407 0 26.8249 2.8903 0 26.5871 2.46072 0 26.5616 3.29653 0 26.3239 2.86695 0 26.8249 2.8903 0 26.5871 2.46072 0 26.8249 2.8903 0 26.3239 2.86695 0 27.6658 0 0 27.9036 0.429576 0 27.4026 0.40623 0 28.1413 0.859152 0 27.6403 0.835806 0 27.9036 0.429576 0 27.1393 0.812459 0 27.4026 0.40623 0 27.6403 0.835806 0 27.9036 0.429576 0 27.6403 0.835806 0 27.4026 0.40623 0 28.6168 1.7183 0 28.1158 1.69496 0 28.3791 1.28873 0 27.6148 1.67161 0 27.8781 1.26538 0 28.1158 1.69496 0 28.1413 0.859152 0 28.3791 1.28873 0 27.8781 1.26538 0 28.1158 1.69496 0 27.8781 1.26538 0 28.3791 1.28873 0 26.6127 1.62492 0 26.876 1.21869 0 27.1137 1.64827 0 27.1393 0.812459 0 27.377 1.24204 0 26.876 1.21869 0 27.6148 1.67161 0 27.1137 1.64827 0 27.377 1.24204 0 26.876 1.21869 0 27.377 1.24204 0 27.1137 1.64827 0 28.1413 0.859152 0 27.8781 1.26538 0 27.6403 0.835806 0 27.6148 1.67161 0 27.377 1.24204 0 27.8781 1.26538 0 27.1393 0.812459 0 27.6403 0.835806 0 27.377 1.24204 0 27.8781 1.26538 0 27.377 1.24204 0 27.6403 0.835806 0 29.5678 3.43661 0 29.0668 3.41326 0 29.3301 3.00703 0 28.5658 3.38992 0 28.8291 2.98369 0 29.0668 3.41326 0 29.0923 2.57746 0 29.3301 3.00703 0 28.8291 2.98369 0 29.0668 3.41326 0 28.8291 2.98369 0 29.3301 3.00703 0 27.5637 3.34322 0 27.827 2.93699 0 28.0647 3.36657 0 28.0903 2.53076 0 28.328 2.96034 0 27.827 2.93699 0 28.5658 3.38992 0 28.0647 3.36657 0 28.328 2.96034 0 27.827 2.93699 0 28.328 2.96034 0 28.0647 3.36657 0 28.6168 1.7183 0 28.8546 2.14788 0 28.3536 2.12453 0 29.0923 2.57746 0 28.5913 2.55411 0 28.8546 2.14788 0 28.0903 2.53076 0 28.3536 2.12453 0 28.5913 2.55411 0 28.8546 2.14788 0 28.5913 2.55411 0 28.3536 2.12453 0 28.5658 3.38992 0 28.328 2.96034 0 28.8291 2.98369 0 28.0903 2.53076 0 28.5913 2.55411 0 28.328 2.96034 0 29.0923 2.57746 0 28.8291 2.98369 0 28.5913 2.55411 0 28.328 2.96034 0 28.5913 2.55411 0 28.8291 2.98369 0 26.6127 1.62492 0 27.1137 1.64827 0 26.8504 2.05449 0 27.6148 1.67161 0 27.3515 2.07784 0 27.1137 1.64827 0 27.0882 2.48407 0 26.8504 2.05449 0 27.3515 2.07784 0 27.1137 1.64827 0 27.3515 2.07784 0 26.8504 2.05449 0 28.6168 1.7183 0 28.3536 2.12453 0 28.1158 1.69496 0 28.0903 2.53076 0 27.8525 2.10119 0 28.3536 2.12453 0 27.6148 
[...]
            <PointData>
                <DataArray Name="p" type="Float64" format="ascii">0.209519 0.2023 0.208901 0.195786 0.201803 0.2023 0.207955 0.208901 0.201803 0.2023 0.201803 0.208901 0.184328 0.189471 0.189851 0.194885 0.195394 0.189471 0.195786 0.189851 0.195394 0.189471 0.195394 0.189851 0.207759 0.207378 0.200901 0.207955 0.201124 0.207378 0.194885 0.200901 0.201124 0.207378 0.201124 0.200901 0.195786 0.195394 0.201803 0.194885 0.201124 0.195394 0.207955 0.201803 0.201124 0.195394 0.201124 0.201803 0.163965 0.168216 0.168978 0.172805 0.173368 0.168216 0.173989 0.168978 0.173368 0.168216 0.173368 0.168978 0.184773 0.183608 0.178173 0.183481 0.178097 0.183608 0.172805 0.178173 0.178097 0.183608 0.178097 0.178173 0.184328 0.179076 0.183907 0.173989 0.17857 0.179076 0.183481 0.183907 0.17857 0.179076 0.17857 0.183907 0.172805 0.178097 0.173368 0.183481 0.17857 0.178097 0.173989 0.173368 0.17857 0.178097 0.17857 0.173368 0.222741 0.217083 0.212206 0.212604 0.207427 0.217083 0.202064 0.212206 0.207427 0.217083 0.207427 0.212206 0.207759 0.201713 0.209458 0.195942 0.203876 0.201713 0.212604 0.209458 0.203876 0.201713 0.203876 0.209458 0.184773 0.192795 0.190315 0.202064 0.198335 0.192795 0.195942 0.190315 0.198335 0.192795 0.198335 0.190315 0.212604 0.203876 0.207427 0.195942 0.198335 0.203876 0.202064 0.207427 0.198335 0.203876 0.198335 0.207427 0.184328 0.183907 0.189471 0.183481 0.189038 0.183907 0.194885 0.189471 0.189038 0.183907 0.189038 0.189471 0.184773 0.190315 0.183608 0.195942 0.189146 0.190315 0.183481 0.183608 0.189146 0.190315 0.189146 0.183608 0.207759 0.200901 0.201713 0.194885 0.194887 0.200901 0.195942 0.201713 0.194887 0.200901 0.194887 0.201713 0.183481 0.189146 0.189038 0.195942 0.194887 0.189146 0.194885 0.189038 0.194887 0.189146 0.194887 0.189038 0.163965 0.158736 0.16308 0.153392 0.157662 0.158736 0.162318 0.16308 0.157662 0.158736 0.157662 0.16308 0.142278 0.146483 0.147914 0.151033 0.152142 0.146483 0.153392 0.147914 0.152142 0.146483 0.152142 0.147914 0.162997 0.162158 0.156352 0.162318 0.156727 0.162158 0.151033 0.156352 0.156727 0.162158 0.156727 0.156352 0.153392 0.152142 0.157662 0.151033 0.156727 0.152142 0.162318 0.157662 0.156727 0.152142 0.156727 0.157662 0.117935 0.122203 0.124296 0.126721 0.128535 0.122203 0.130475 0.124296 0.128535 0.122203 0.128535 0.124296 0.13784 0.13817 0.131794 0.139203 0.133046 0.13817 0.126721 0.131794 0.133046 0.13817 0.133046 0.131794 0.142278 0.136468 0.140672 0.130475 0.134691 0.136468 0.139203 0.140672 0.134691 0.136468 0.134691 0.140672 0.126721 0.133046 0.128535 0.139203 0.134691 0.133046 0.130475 0.128535 0.134691 0.133046 0.134691 0.128535 0.175528 0.171588 0.164214 0.167945 0.161055 0.171588 0.15403 0.164214 0.161055 0.171588 0.161055 0.164214 0.162997 0.156906 0.164973 0.150706 0.158518 0.156906 0.167945 0.164973 0.158518 0.156906 0.158518 0.164973 0.13784 0.145201 0.144344 0.15403 0.15194 0.145201 0.150706 0.144344 0.15194 0.145201 0.15194 0.144344 0.167945 0.158518 0.161055 0.150706 0.15194 0.158518 0.15403 0.161055 0.15194 0.158518 0.15194 0.161055 0.142278 0.140672 0.146483 0.139203 0.145193 0.140672 0.151033 0.146483 0.145193 0.140672 0.145193 0.146483 0.13784 0.144344 0.13817 0.150706 0.144379 0.144344 0.139203 0.13817 0.144379 0.144344 0.144379 0.13817 0.162997 0.156352 0.156906 0.151033 0.150444 0.156352 0.150706 0.156906 0.150444 0.156352 0.150444 0.156906 0.139203 0.144379 0.145193 0.150706 0.150444 0.144379 0.151033 0.145193 0.150444 0.144379 0.150444 0.145193 0.222741 0.212206 0.218366 0.202064 0.207294 0.212206 0.213464 0.218366 0.207294 0.212206 0.207294 0.218366 0.184773 0.187445 0.192795 0.191484 0.196859 0.187445 0.202064 0.192795 0.196859 0.187445 0.196859 0.192795 0.202243 0.20807 0.196539 0.213464 0.202091 0.20807 0.191484 0.196539 0.202091 0.20807 0.202091 0.196539 0.202064 0.196859 0.207294 0.191484 0.202091 0.196859 0.213464 0.207294 0.202091 0.196859 0.202091 0.207294 0.163965 0.16308 0.168216 0.162318 0.167584 0.16308 0.172805 0.168216 0.167584 0.16308 0.167584 0.168216 0.162997 0.168577 0.162158 0.174043 0.167557 0.168577 0.162318 0.162158 0.167557 0.168577 0.167557 0.162158 0.184773 0.178173 0.179419 0.172805 0.172876 0.178173 0.174043 0.179419 0.172876 0.178173 0.172876 0.179419 0.162318 0.167557 0.167584 0.174043 0.172876 0.167557 0.172805 0.167584 0.172876 0.167557 0.172876 0.167584 0.175528 0.182637 0.171588 0.189483 0.178206 0.182637 0.167945 0.171588 0.178206 0.182637 0.178206 0.171588 0.202243 0.190707 0.196032 0.180123 0.184581 0.190707 0.189483 0.196032 0.184581 0.190707 0.184581 0.196032 0.162997 0.164973 0.170818 0.167945 0.174135 0.164973 0.180123 0.170818 0.174135 0.164973 0.174135 0.170818 0.189483 0.184581 0.178206 0.180123 0.174135 0.184581 0.167945 0.178206 0.174135 0.184581 0.174135 0.178206 0.184773 0.179419 0.187445 0.174043 0.182041 0.179419 0.191484 0.187445 0.182041 0.179419 0.182041 0.187445 0.162997 0.170818 0.168577 0.180123 0.176495 0.170818 0.174043 0.168577 0.176495 0.170818 0.176495 0.168577 0.202243 0.196539 0.190707 0.191484 0.185903 0.196539 0.180123 0.190707 0.185903 0.196539 0.185903 0.190707 0.174043 0.176495 0.182041 0.180123 0.185903 0.176495 0.191484 0.182041 0.185903 0.176495 0.185903 0.182041 0.222741 0.218366 0.230224 0.213464 0.225888 0.218366 0.238563 0.230224 0.225888 0.218366 0.225888 0.230224 0.202243 0.215087 0.20807 0.228459 0.220773 0.215087 0.213464 0.20807 0.220773 0.215087 0.220773 0.20807 0.25667 0.247438 0.242312 0.238563 0.233926 0.247438 0.228459 0.242312 0.233926 0.247438 0.233926 0.242312 0.213464 0.220773 0.225888 0.228459 0.233926 0.220773 0.238563 0.225888 0.233926 0.220773 0.233926 0.225888 0.175528 0.187743 0.182637 0.200653 0.195118 0.187743 0.189483 0.182637 0.195118 0.187743 0.195118 0.182637 0.228244 0.222054 0.214163 0.215529 0.208287 0.222054 0.200653 0.214163 0.208287 0.222054 0.208287 0.214163 0.202243 0.196032 0.208847 0.189483 0.202177 0.196032 0.215529 0.208847 0.202177 0.196032 0.202177 0.208847 0.200653 0.208287 0.195118 0.215529 0.202177 0.208287 0.189483 0.195118 0.202177 0.208287 0.202177 0.195118 0.286261 0.281658 0.272407 0.274517 0.266465 0.281658 0.257719 0.272407 0.266465 0.281658 0.266465 0.272407 0.25667 0.25077 0.265882 0.243962 0.259 0.25077 0.274517 0.265882 0.259 0.25077 0.259 0.265882 0.228244 0.242809 0.236383 0.257719 0.251278 0.242809 0.243962 0.236383 0.251278 0.242809 0.251278 0.236383 0.274517 0.259 0.266465 0.243962 0.251278 0.259 0.257719 0.266465 0.251278 0.259 0.251278 0.266465 0.202243 0.208847 0.215087 0.215529 0.222282 0.208847 0.228459 0.215087 0.222282 0.208847 0.222282 0.215087 0.228244 0.236383 0.222054 0.243962 0.229457 0.236383 0.215529 0.222054 0.229457 0.236383 0.229457 0.222054 0.25667 0.242312 0.25077 0.228459 0.23625 0.242312 0.243962 0.25077 0.23625 0.242312 0.23625 0.25077 0.215529 0.229457 0.222282 0.243962 0.23625 0.229457 0.228459 0.222282 0.23625 0.229457 0.23625 0.222282 0.175528 0.177079 0.187743 0.178039 0.189523 0.177079 0.200653 0.187743 0.189523 0.177079 0.189523 0.187743 0.177863 0.190821 0.178361 0.203613 0.190564 0.190821 0.178039 0.178361 0.190564 0.190821 0.190564 0.178361 0.228244 0.214163 0.21616 0.200653 0.202572 0.214163 0.203613 0.21616 0.202572 0.214163 0.202572 0.21616 0.178039 0.190564 0.189523 0.203613 0.202572 0.190564 0.200653 0.189523 0.202572 0.190564 0.202572 0.189523 0.165807 0.180808 0.170562 0.195977 0.185238 0.180808 0.174092 0.170562 0.185238 0.180808 0.185238 0.170562 0.226704 0.214895 0.211306 0.202558 0.200051 0.214895 0.195977 0.211306 0.200051 0.214895 0.200051 0.211306 0.177863 0.176493 0.190105 0.174092 0.188309 0.176493 0.202558 0.190105 0.188309 0.176493 0.188309 0.190105 0.195977 0.200051 0.185238 0.202558 0.188309 0.200051 0.174092 0.185238 0.188309 0.200051 0.188309 0.185238 0.286261 0.272407 0.272176 0.257719 0.258809 0.272407 0.257312 0.272176 0.258809 0.272407 0.258809 0.272176 0.228244 0.230235 0.242809 0.230826 0.244566 0.230235 0.257719 0.242809 0.244566 0.230235 0.244566 0.242809 0.226704 0.242109 0.229767 0.257312 0.244404 0.242109 0.230826 0.229767 0.244404 0.242109 0.244404 0.229767 0.257719 0.244566 0.258809 0.230826 0.244404 0.244566 0.257312 0.258809 0.244404 0.244566 0.244404 0.258809 0.177863 0.190105 0.190821 0.202558 0.203692 0.190105 0.203613 0.190821 0.203692 0.190105 0.203692 0.190821 0.226704 0.229767 0.214895 0.230826 0.216775 0.229767 0.202558 0.214895 0.216775 0.229767 0.216775 0.214895 0.228244 0.21616 0.230235 0.203613 0.217088 0.21616 0.230826 0.230235 0.217088 0.21616 0.217088 0.230235 0.202558 0.216775 0.203692 0.230826 0.217088 0.216775 0.203613 0.203692 0.217088 0.216775 0.217088 0.203692 0.222741 0.230224 0.231677 0.238563 0.239806 0.230224 0.240167 0.231677 0.239806 0.230224 0.239806 0.231677 0.25667 0.258632 0.247438 0.2591 0.248896 0.258632 0.238563 0.247438 0.248896 0.258632 0.248896 0.247438 0.25539 0.248146 0.258052 0.240167 0.249075 0.248146 0.2591 0.258052 0.249075 0.248146 0.249075 0.258052 0.238563 0.248896 0.239806 0.2591 0.249075 0.248896 0.240167 0.239806 0.249075 0.248896 0.249075 0.239806 0.286261 0.293967 0.281658 0.299946 0.287452 0.293967 0.274517 0.281658 0.287452 0.293967 0.287452 0.281658 0.305245 0.293281 0.303931 0.280945 0.291398 0.293281 0.299946 0.303931 0.291398 0.293281 0.291398 0.303931 0.25667 0.265882 0.268742 0.274517 0.278652 0.265882 0.280945 0.268742 0.278652 0.265882 0.278652 0.268742 0.299946 0.291398 0.287452 0.280945 0.278652 0.291398 0.274517 0.287452 0.278652 0.291398 0.278652 0.287452 0.27643 0.272702 0.289955 0.267666 0.282476 0.272702 0.298579 0.289955 0.282476 0.272702 0.282476 0.289955 0.25539 0.266581 0.261995 0.279231 0.274849 0.266581 0.267666 0.261995 0.274849 0.266581 0.274849 0.261995 0.305245 0.303809 0.292563 0.298579 0.289186 0.303809 0.279231 0.292563 0.289186 0.303809 0.289186 0.292563 0.267666 0.274849 0.282476 0.279231 0.289186 0.274849 0.298579 0.282476 0.289186 0.274849 0.289186 0.282476 0.25667 0.268742 0.258632 0.280945 0.269877 0.268742 0.2591 0.258632 0.269877 0.268742 0.269877 0.258632 0.305245 0.292563 0.293281 0.279231 0.281274 0.292563 0.280945 0.293281 0.281274 0.292563 0.281274 0.293281 0.25539 0.258052 0.266581 0.2591 0.269259 0.258052 0.279231 0.266581 0.269259 0.258052 0.269259 0.266581 0.280945 0.281274 0.269877 0.279231 0.269259 0.281274 0.2591 0.269877 0.269259 0.281274 0.269259 0.269877 0.266894 0.262228 0.276156 0.256973 0.270597 0.262228 0.284813 0.276156 0.270597 0.262228 0.270597 0.276156 0.245763 0.258006 0.251399 0.271055 0.264432 0.258006 0.256973 0.251399 0.264432 0.258006 0.264432 0.251399 0.299592 0.292683 0.285004 0.284813 0.278247 0.292683 0.271055 0.285004 0.278247 0.292683 0.278247 0.285004 0.256973 0.264432 0.270597 0.271055 0.278247 0.264432 0.284813 0.270597 0.278247 0.264432 0.278247 0.270597 0.227476 0.235543 0.230973 0.243764 0.24017 0.235543 0.235285 0.230973 0.24017 0.235543 0.24017 0.230973 0.261495 0.259829 0.252355 0.256388 0.249676 0.259829 0.243764 0.252355 0.249676 0.259829 0.249676 0.252355 0.245763 0.240329 0.251635 0.235285 0.24557 0.240329 0.256388 0.251635 0.24557 0.240329 0.24557 0.251635 0.243764 0.249676 0.24017 0.256388 0.24557 0.249676 0.235285 0.24017 0.24557 0.249676 0.24557 0.24017 0.309438 0.310608 0.296253 0.308982 0.296545 0.310608 0.283281 0.296253 0.296545 0.310608 0.296545 0.296253 0.299592 0.290514 0.305096 0.280743 0.294592 0.290514 0.308982 0.305096 0.294592 0.290514 0.294592 0.305096 0.261495 0.271773 0.27081 0.283281 0.283096 0.271773 0.280743 0.27081 0.283096 0.271773 0.283096 0.27081 0.308982 0.294592 0.296545 0.280743 0.283096 0.294592 0.283281 0.296545 0.283096 0.294592 0.283096 0.296545 0.245763 0.251635 0.258006 0.256388 0.263631 0.251635 0.271055 0.258006 0.263631 0.251635 0.263631 0.258006 0.261495 0.27081 0.259829 0.280743 0.268053 0.27081 0.256388 0.259829 0.268053 0.27081 0.268053 0.259829 0.299592 0.285004 0.290514 0.271055 0.276585 0.285004 0.280743 0.290514 0.276585 0.285004 0.276585 0.290514 0.256388 0.268053 0.263631 0.280743 0.276585 0.268053 0.271055 0.263631 0.276585 0.268053 0.276585 0.263631 0.27643 0.289955 0.293323 0.298579 0.306808 0.289955 0.310588 0.293323 0.306808 0.289955 0.306808 0.293323 0.305245 0.318241 0.303809 0.328095 0.314577 0.318241 0.298579 0.303809 0.314577 0.318241 0.314577 0.303809 0.332506 0.324399 0.333597 0.310588 0.322295 0.324399 0.328095 0.333597 0.322295 0.324399 0.322295 0.333597 0.298579 0.314577 0.306808 0.328095 0.322295 0.314577 0.310588 0.306808 0.322295 0.314577 0.322295 0.306808 0.286261 0.301091 0.293967 0.314019 0.308836 0.301091 0.299946 0.293967 0.308836 0.301091 0.308836 0.293967 0.331784 0.331492 0.324529 0.326971 0.321667 0.331492 0.314019 0.324529 0.321667 0.331492 0.321667 0.324529 0.305245 0.303931 0.317941 0.299946 0.314672 0.303931 0.326971 0.317941 0.314672 0.303931 0.314672 0.317941 0.314019 0.321667 0.308836 0.326971 0.314672 0.321667 0.299946 0.308836 0.314672 0.321667 0.314672 0.308836 0.309438 0.32287 0.325027 0.331674 0.335152 0.32287 0.333154 0.325027 0.335152 0.32287 0.335152 0.325027 0.332506 0.339338 0.3348 0.340409 0.339821 0.339338 0.331674 0.3348 0.339821 0.339338 0.339821 0.3348 0.331784 0.335213 0.337781 0.333154 0.339168 0.335213 0.340409 0.337781 0.339168 0.335213 0.339168 0.337781 0.331674 0.339821 0.335152 0.340409 0.339168 0.339821 0.333154 0.335152 0.339168 0.339821 0.339168 0.335152 0.305245 0.317941 0.318241 0.326971 0.329465 0.317941 0.328095 0.318241 0.329465 0.317941 0.329465 0.318241 0.331784 0.337781 0.331492 0.340409 0.335985 0.337781 0.326971 0.331492 0.335985 0.337781 0.335985 0.331492 0.332506 0.333597 0.339338 0.328095 0.336856 0.333597 0.340409 0.339338 0.336856 0.333597 0.336856 0.339338 0.326971 0.335985 0.329465 0.340409 0.336856 0.335985 0.328095 0.329465 0.336856 0.335985 0.336856 0.329465 0.286261 0.293463 0.301091 0.297931 0.306455 0.293463 0.314019 0.301091 0.306455 0.293463 0.306455 0.301091 0.298542 0.308197 0.299616 0.317143 0.30883 0.308197 0.297931 0.299616 0.30883 0.308197 0.30883 0.299616 0.331784 0.324529 0.325099 0.314019 0.317138 0.324529 0.317143 0.325099 0.317138 0.324529 0.317138 0.325099 0.297931 0.30883 0.306455 0.317143 0.317138 0.30883 0.314019 0.306455 0.317138 0.30883 0.317138 0.306455 0.266894 0.276156 0.277774 0.284813 0.287542 0.276156 0.287257 0.277774 0.287542 0.276156 0.287542 0.277774 0.299592 0.305218 0.292683 0.306792 0.296772 0.305218 0.284813 0.292683 0.296772 0.305218 0.296772 0.292683 0.298542 0.29444 0.304408 0.287257 0.297295 0.29444 0.306792 0.304408 0.297295 0.29444 0.297295 0.304408 0.284813 0.296772 0.287542 0.306792 0.297295 0.296772 0.287257 0.287542 0.297295 0.296772 0.297295 0.287542 0.309438 0.325027 0.310608 0.333154 0.322872 0.325027 0.308982 0.310608 0.322872 0.325027 0.322872 0.310608 0.331784 0.329363 0.335213 0.322963 0.329041 0.329363 0.333154 0.335213 0.329041 0.329363 0.329041 0.335213 0.299592 0.305096 0.312643 0.308982 0.318707 0.305096 0.322963 0.312643 0.318707 0.305096 0.318707 0.312643 0.333154 0.329041 0.322872 0.322963 0.318707 0.329041 0.308982 0.322872 0.318707 0.329041 0.318707 0.322872 0.298542 0.304408 0.308197 0.306792 0.313759 0.304408 0.317143 0.308197 0.313759 0.304408 0.313759 0.308197 0.299592 0.312643 0.305218 0.322963 0.315429 0.312643 0.306792 0.305218 0.315429 0.312643 0.315429 0.305218 0.331784 0.325099 0.329363 0.317143 0.322222 0.325099 0.322963 0.329363 0.322222 0.325099 0.322222 0.329363 0.306792 0.315429 0.313759 0.322963 0.322222 0.315429 0.317143 0.313759 0.322222 0.315429 0.322222 0.313759 </DataArray>