<?xml version="1.0" encoding="UTF-8"?>
<VTKFile type="UnstructuredGrid" version="0.1" byte_order="LittleEndian" compressor="vtkZLibDataCompressor">
    <UnstructuredGrid>
        <Piece NumberOfPoints="1920" NumberOfCells="640">
            <Points>
                <DataArray type="Float64" Name="Array" NumberOfComponents="3" format="ascii" RangeMin="0" RangeMax="17.4785746463949">11.8261 0 0 12.176 0 0 12.0266 0.316327 0 12.526 0 0 12.3766 0.316327 0 12.176 0 0 12.2271 0.632654 0 12.0266 0.316327 0 12.3766 0.316327 0 12.176 0 0 12.3766 0.316327 0 12.0266 0.316327 0 13.226 0 0 13.0765 0.316327 0 12.876 0 0 12.9271 0.632654 0 12.7265 0.316327 0 13.0765 0.316327 0 12.526 0 0 12.876 0 0 12.7265 0.316327 0 13.0765 0.316327 0 12.7265 0.316327 0 12.876 0 0 12.6281 1.26531 0 12.4276 0.948982 0 12.7776 0.948982 0 12.2271 0.632654 0 12.5771 0.632654 0 12.4276 0.948982 0 12.9271 0.632654 0 12.7776 0.948982 0 12.5771 0.632654 0 12.4276 0.948982 0 12.5771 0.632654 0 12.7776 0.948982 0 12.526 0 0 12.7265 0.316327 0 12.3766 0.316327 0 12.9271 0.632654 0 12.5771 0.632654 0 12.7265 0.316327 0 12.2271 0.632654 0 12.3766 0.316327 0 12.5771 0.632654 0 12.7265 0.316327 0 12.5771 0.632654 0 12.3766 0.316327 0 14.626 0 0 14.4765 0.316327 0 14.276 0 0 14.327 0.632654 0 14.1265 0.316327 0 14.4765 0.316327 0 13.926 0 0 14.276 0 0 14.1265 0.316327 0 14.4765 0.316327 0 14.1265 0.316327 0 14.276 0 0 14.0281 1.26531 0 13.8276 0.948982 0 14.1775 0.948982 0 13.627 0.632654 0 13.977 0.632654 0 13.8276 0.948982 0 14.327 0.632654 0 14.1775 0.948982 0 13.977 0.632654 0 13.8276 0.948982 0 13.977 0.632654 0 14.1775 0.948982 0 13.226 0 0 13.576 0 0 13.4265 0.316327 0 13.926 0 0 13.7765 0.316327 0 13.576 0 0 13.627 0.632654 0 13.4265 0.316327 0 13.7765 0.316327 0 13.576 0 0 13.7765 0.316327 0 13.4265 0.316327 0 14.327 0.632654 0 13.977 0.632654 0 14.1265 0.316327 0 13.627 0.632654 0 13.7765 0.316327 0 13.977 0.632654 0 13.926 0 0 14.1265 0.316327 0 13.7765 0.316327 0 13.977 0.632654 0 13.7765 0.316327 0 14.1265 0.316327 0 13.4301 2.53062 0 13.2296 2.21429 0 13.5796 2.21429 0 13.0291 1.89796 0 13.3791 1.89796 0 13.2296 2.21429 0 13.7291 1.89796 0 13.5796 2.21429 0 13.3791 1.89796 0 13.2296 2.21429 0 13.3791 1.89796 0 13.5796 2.21429 0 12.6281 1.26531 0 12.9781 1.26531 0 12.8286 1.58164 0 13.3281 1.26531 0 13.1786 1.58164 0 12.9781 1.26531 0 13.0291 1.89796 0 12.8286 1.58164 0 13.1786 1.58164 0 12.9781 1.26531 0 13.1786 1.58164 0 12.8286 1.58164 0 14.0281 1.26531 0 13.8786 1.58164 0 13.6781 1.26531 0 13.7291 1.89796 0 13.5286 1.58164 0 13.8786 1.58164 0 13.3281 1.26531 0 13.6781 1.26531 0 13.5286 1.58164 0 13.8786 1.58164 0 13.5286 1.58164 0 13.6781 1.26531 0 13.0291 1.89796 0 13.1786 1.58164 0 13.3791 1.89796 0 13.3281 1.26531 0 13.5286 1.58164 0 13.1786 1.58164 0 13.7291 1.89796 0 13.3791 1.89796 0 13.5286 1.58164 0 13.1786 1.58164 0 13.5286 1.58164 0 13.3791 1.89796 0 13.226 0 0 13.4265 0.316327 0 13.0765 0.316327 0 13.627 0.632654 0 13.277 0.632654 0 13.4265 0.316327 0 12.9271 0.632654 0 13.0765 0.316327 0 13.277 0.632654 0 13.4265 0.316327 0 13.277 0.632654 0 13.0765 0.316327 0 14.0281 1.26531 0 13.6781 1.26531 0 13.8276 0.948982 0 13.3281 1.26531 0 13.4776 0.948982 0 13.6781 1.26531 0 13.627 0.632654 0 13.8276 0.948982 0 13.4776 0.948982 0 13.6781 1.26531 0 13.4776 0.948982 0 13.8276 0.948982 0 12.6281 1.26531 0 12.7776 0.948982 0 12.9781 1.26531 0 12.9271 0.632654 0 13.1276 0.948982 0 12.7776 0.948982 0 13.3281 1.26531 0 12.9781 1.26531 0 13.1276 0.948982 0 12.7776 0.948982 0 13.1276 0.948982 0 12.9781 1.26531 0 13.627 0.632654 0 13.4776 0.948982 0 13.277 0.632654 0 13.3281 1.26531 0 13.1276 0.948982 0 13.4776 0.948982 0 12.9271 0.632654 0 13.277 0.632654 0 13.1276 0.948982 0 13.4776 0.948982 0 13.1276 0.948982 0 13.277 0.632654 0 13.4301 2.53062 0 13.5796 2.21429 0 13.7482 2.51539 0 13.7291 1.89796 0 13.8977 2.19906 0 13.5796 2.21429 0 14.0663 2.50015 0 13.7482 2.51539 0 13.8977 2.19906 0 13.5796 2.21429 0 13.8977 2.19906 0 13.7482 2.51539 0 14.0281 1.26531 0 14.1967 1.5664 0 13.8786 1.58164 0 14.3652 1.8675 0 14.0472 1.88273 0 14.1967 1.5664 0 13.7291 1.89796 0 13.8786 1.58164 0 14.0472 1.88273 0 14.1967 1.5664 0 14.0472 1.88273 0 13.8786 1.58164 0 14.7024 2.46969 0 14.3844 2.48492 0 14.5338 2.16859 0 14.0663 2.50015 0 14.2158 2.18383 0 14.3844 2.48492 0 14.3652 1.8675 0 14.5338 2.16859 0 14.2158 2.18383 0 14.3844 2.48492 0 14.2158 2.18383 0 14.5338 2.16859 0 13.7291 1.89796 0 14.0472 1.88273 0 13.8977 2.19906 0 14.3652 1.8675 0 14.2158 2.18383 0 14.0472 1.88273 0 14.0663 2.50015 0 13.8977 2.19906 0 14.2158 2.18383 0 14.0472 1.88273 0 14.2158 2.18383 0 13.8977 2.19906 0 14.626 0 0 14.7946 0.301095 0 14.4765 0.316327 0 14.9632 0.60219 0 14.6451 0.617422 0 14.7946 0.301095 0 14.327 0.632654 0 14.4765 0.316327 0 14.6451 0.617422 0 14.7946 0.301095 0 14.6451 0.617422 0 14.4765 0.316327 0 15.3004 1.20438 0 14.9823 1.21961 0 15.1318 0.903286 0 14.6642 1.23484 0 14.8137 0.918518 0 14.9823 1.21961 0 14.9632 0.60219 0 15.1318 0.903286 0 14.8137 0.918518 0 14.9823 1.21961 0 14.8137 0.918518 0 15.1318 0.903286 0 14.0281 1.26531 0 14.1775 0.948982 0 14.3461 1.25008 0 14.327 0.632654 0 14.4956 0.93375 0 14.1775 0.948982 0 14.6642 1.23484 0 14.3461 1.25008 0 14.4956 0.93375 0 14.1775 0.948982 0 14.4956 0.93375 0 14.3461 1.25008 0 14.9632 0.60219 0 14.8137 0.918518 0 14.6451 0.617422 0 14.6642 1.23484 0 14.4956 0.93375 0 14.8137 0.918518 0 14.327 0.632654 0 14.6451 0.617422 0 14.4956 0.93375 0 14.8137 0.918518 0 14.4956 0.93375 0 14.6451 0.617422 0 15.9748 2.40876 0 15.6567 2.42399 0 15.8062 2.10767 0 15.3386 2.43923 0 15.4881 2.1229 0 15.6567 2.42399 0 15.6376 1.80657 0 15.8062 2.10767 0 15.4881 2.1229 0 15.6567 2.42399 0 15.4881 2.1229 0 15.8062 2.10767 0 14.7024 2.46969 0 14.8519 2.15336 0 15.0205 2.45446 0 15.0014 1.83704 0 15.17 2.13813 0 14.8519 2.15336 0 15.3386 2.43923 0 15.0205 2.45446 0 15.17 2.13813 0 14.8519 2.15336 0 15.17 2.13813 0 15.0205 2.45446 0 15.3004 1.20438 0 15.469 1.50548 0 15.1509 1.52071 0 15.6376 1.80657 0 15.3195 1.8218 0 15.469 1.50548 0 15.0014 1.83704 0 15.1509 1.52071 0 15.3195 1.8218 0 15.469 1.50548 0 15.3195 1.8218 0 15.1509 1.52071 0 15.3386 2.43923 0 15.17 2.13813 0 15.4881 2.1229 0 15.0014 1.83704 0 15.3195 1.8218 0 15.17 2.13813 0 15.6376 1.80657 0 15.4881 2.1229 0 15.3195 1.8218 0 15.17 2.13813 0 15.3195 1.8218 0 15.4881 2.1229 0 14.0281 1.26531 0 14.3461 1.25008 0 14.1967 1.5664 0 14.6642 1.23484 0 14.5147 1.55117 0 14.3461 1.25008 0 14.3652 1.8675 0 14.1967 1.5664 0 14.5147 1.55117 0 14.3461 1.25008 0 14.5147 1.55117 0 14.1967 1.5664 0 15.3004 1.20438 0 15.1509 1.52071 0 14.9823 1.21961 0 15.0014 1.83704 0 14.8328 1.53594 0 15.1509 1.52071 0 14.6642 1.23484 0 14.9823 1.21961 0 14.8328 1.53594 0 15.1509 1.52071 0 14.8328 1.53594 0 14.9823 1.21961 0 14.7024 2.46969 0 14.5338 2.16859 0 14.8519 2.15336 0 14.3652 1.8675 0 14.6833 1.85227 0 14.5338 2.16859 0 15.0014 1.83704 0 14.8519 2.15336 0 14.6833 1.85227 0 14.5338 2.16859 0 14.6833 1.85227 0 14.8519 2.15336 0 14.6642 1.23484 0 14.8328 1.53594 0 14.5147 1.55117 0 15.0014 1.83704 0 14.6833 1.85227 0 14.8328 1.53594 0 14.3652 1.8675 0 14.5147 1.55117 0 14.6833 1.85227 0 14.8328 1.53594 0 14.6833 1.85227 0 14.5147 1.55117 0 14.626 0 0 14.9673 0 0 14.7946 0.301095 0 15.3086 0 0 15.1359 0.301095 0 14.9673 0 0 14.9632 0.60219 0 14.7946 0.301095 0 15.1359 0.301095 0 14.9673 0 0 15.1359 0.301095 0 14.7946 0.301095 0 15.9912 0 0 15.8185 0.301095 0 15.6499 0 0 15.6458 0.60219 0 15.4772 0.301095 0 15.8185 0.301095 0 15.3086 0 0 15.6499 0 0 15.4772 0.301095 0 15.8185 0.301095 0 15.4772 0.301095 0 15.6499 0 0 15.3004 1.20438 0 15.1318 0.903286 0 15.4731 0.903286 0 14.9632 0.60219 0 15.3045 0.60219 0 15.1318 0.903286 0 15.6458 0.60219 0 15.4731 0.903286 0 15.3045 0.60219 0 15.1318 0.903286 0 15.3045 0.60219 0 15.4731 0.903286 0 15.3086 0 0 15.4772 0.301095 0 15.1359 0.301095 0 15.6458 0.60219 0 15.3045 0.60219 0 15.4772 0.301095 0 14.9632 0.60219 0 15.1359 0.301095 0 15.3045 0.60219 0 15.4772 0.301095 0 15.3045 0.60219 0 15.1359 0.301095 0 17.3563 0 0 17.1836 0.301095 0 17.015 0 0 17.0109 0.60219 0 16.8423 0.301095 0 17.1836 0.301095 0 16.6737 0 0 17.015 0 0 16.8423 0.301095 0 17.1836 0.301095 0 16.8423 0.301095 0 17.015 0 0 16.6655 1.20438 0 16.4969 0.903286 0 16.8382 0.903286 0 16.3283 0.60219 0 16.6696 0.60219 0 16.4969 0.903286 0 17.0109 0.60219 0 16.8382 0.903286 0 16.6696 0.60219 0 16.4969 0.903286 0 16.6696 0.60219 0 16.8382 0.903286 0 15.9912 0 0 16.3324 0 0 16.1597 0.301095 0 16.6737 0 0 16.501 0.301095 0 16.3324 0 0 16.3283 0.60219 0 16.1597 0.301095 0 16.501 0.301095 0 16.3324 0 0 16.501 0.301095 0 16.1597 0.301095 0 17.0109 0.60219 0 16.6696 0.60219 0 16.8423 0.301095 0 16.3283 0.60219 0 16.501 0.301095 0 16.6696 0.60219 0 16.6737 0 0 16.8423 0.301095 0 16.501 0.301095 0 16.6696 0.60219 0 16.501 0.301095 0 16.8423 0.301095 0 15.9748 2.40876 0 15.8062 2.10767 0 16.1475 2.10767 0 15.6376 1.80657 0 15.9789 1.80657 0 15.8062 2.10767 0 16.3201 1.80657 0 16.1475 2.10767 0 15.9789 1.80657 0 15.8062 2.10767 0 15.9789 1.80657 0 16.1475 2.10767 0 15.3004 1.20438 0 15.6417 1.20438 0 15.469 1.50548 0 15.983 1.20438 0 15.8103 1.50548 0 15.6417 1.20438 0 15.6376 1.80657 0 15.469 1.50548 0 15.8103 1.50548 0 15.6417 1.20438 0 15.8103 1.50548 0 15.469 1.50548 0 16.6655 1.20438 0 16.4928 1.50548 0 16.3242 1.20438 0 16.3201 1.80657 0 16.1516 1.50548 0 16.4928 1.50548 0 15.983 1.20438 0 16.3242 1.20438 0 16.1516 1.50548 0 16.4928 1.50548 0 16.1516 1.50548 0 16.3242 1.20438 0 15.6376 1.80657 0 15.8103 1.50548 0 15.9789 1.80657 0 15.983 1.20438 0 16.1516 1.50548 0 15.8103 1.50548 0 16.3201 1.80657 0 15.9789 1.80657 0 16.1516 1.50548 0 15.8103 1.50548 0 16.1516 1.50548 0 15.9789 1.80657 0 15.9912 0 0 16.1597 0.301095 0 15.8185 0.301095 0 16.3283 0.60219 0 15.9871 0.60219 0 16.1597 0.301095 0 15.6458 0.60219 0 15.8185 0.301095 0 15.9871 0.60219 0 16.1597 0.301095 0 15.9871 0.60219 0 15.8185 0.301095 0 16.6655 1.20438 0 16.3242 1.20438 0 16.4969 0.903286 0 15.983 1.20438 0 16.1556 0.903286 0 
[...]
            <PointData>
                <DataArray Name="p" type="Float64" format="ascii">1.08868 1.05611 1.06956 1.0222 1.03608 1.05611 1.05111 1.06956 1.03608 1.05611 1.03608 1.06956 0.950637 0.965337 0.987029 0.9809 1.00129 0.965337 1.0222 0.987029 1.00129 0.965337 1.00129 0.987029 1.01783 1.03381 0.998166 1.05111 1.01669 1.03381 0.9809 0.998166 1.01669 1.03381 1.01669 0.998166 1.0222 1.00129 1.03608 0.9809 1.01669 1.00129 1.05111 1.03608 1.01669 1.00129 1.01669 1.03608 0.796019 0.812182 0.835627 0.828157 0.851486 0.812182 0.874756 0.835627 0.851486 0.812182 0.851486 0.835627 0.860385 0.883793 0.84401 0.906164 0.867475 0.883793 0.828157 0.84401 0.867475 0.883793 0.867475 0.84401 0.950637 0.913162 0.928266 0.874756 0.89026 0.913162 0.906164 0.928266 0.89026 0.913162 0.89026 0.928266 0.828157 0.867475 0.851486 0.906164 0.89026 0.867475 0.874756 0.851486 0.89026 0.867475 0.89026 0.851486 0.953734 0.971968 0.92454 0.987959 0.94476 0.971968 0.899477 0.92454 0.94476 0.971968 0.94476 0.92454 1.01783 0.980433 1.00285 0.941347 0.962946 0.980433 0.987959 1.00285 0.962946 0.980433 0.962946 1.00285 0.860385 0.878559 0.901377 0.899477 0.921194 0.878559 0.941347 0.901377 0.921194 0.878559 0.921194 0.901377 0.987959 0.962946 0.94476 0.941347 0.921194 0.962946 0.899477 0.94476 0.921194 0.962946 0.921194 0.94476 0.950637 0.928266 0.965337 0.906164 0.94406 0.928266 0.9809 0.965337 0.94406 0.928266 0.94406 0.965337 0.860385 0.901377 0.883793 0.941347 0.922919 0.901377 0.906164 0.883793 0.922919 0.901377 0.922919 0.883793 1.01783 0.998166 0.980433 0.9809 0.961015 0.998166 0.941347 0.980433 0.961015 0.998166 0.961015 0.980433 0.906164 0.922919 0.94406 0.941347 0.961015 0.922919 0.9809 0.94406 0.961015 0.922919 0.961015 0.94406 0.953734 0.92454 0.905506 0.899477 0.879257 0.92454 0.856038 0.905506 0.879257 0.92454 0.879257 0.905506 0.860385 0.838964 0.878559 0.815146 0.857509 0.838964 0.899477 0.878559 0.857509 0.838964 0.857509 0.878559 0.756122 0.806 0.787847 0.856038 0.83372 0.806 0.815146 0.787847 0.83372 0.806 0.83372 0.787847 0.899477 0.857509 0.879257 0.815146 0.83372 0.857509 0.856038 0.879257 0.83372 0.857509 0.83372 0.879257 0.796019 0.776254 0.812182 0.756165 0.792185 0.776254 0.828157 0.812182 0.792185 0.776254 0.792185 0.812182 0.710504 0.747578 0.734625 0.785082 0.770999 0.747578 0.756165 0.734625 0.770999 0.747578 0.770999 0.734625 0.860385 0.84401 0.822775 0.828157 0.807509 0.84401 0.785082 0.822775 0.807509 0.84401 0.807509 0.822775 0.756165 0.770999 0.792185 0.785082 0.807509 0.770999 0.828157 0.792185 0.807509 0.770999 0.807509 0.792185 0.571511 0.614212 0.613863 0.659569 0.654992 0.614212 0.650794 0.613863 0.654992 0.614212 0.654992 0.613863 0.756122 0.742473 0.707071 0.731175 0.698 0.742473 0.659569 0.707071 0.698 0.742473 0.698 0.707071 0.710504 0.682818 0.720979 0.650794 0.690347 0.682818 0.731175 0.720979 0.690347 0.682818 0.690347 0.720979 0.659569 0.698 0.654992 0.731175 0.690347 0.698 0.650794 0.654992 0.690347 0.698 0.690347 0.654992 0.860385 0.822775 0.838964 0.785082 0.799403 0.822775 0.815146 0.838964 0.799403 0.822775 0.799403 0.838964 0.710504 0.720979 0.747578 0.731175 0.759917 0.720979 0.785082 0.747578 0.759917 0.720979 0.759917 0.747578 0.756122 0.787847 0.742473 0.815146 0.77292 0.787847 0.731175 0.742473 0.77292 0.787847 0.77292 0.742473 0.785082 0.759917 0.799403 0.731175 0.77292 0.759917 0.815146 0.799403 0.77292 0.759917 0.77292 0.799403 0.796019 0.757204 0.776254 0.718462 0.737652 0.757204 0.756165 0.776254 0.737652 0.757204 0.737652 0.776254 0.642395 0.661528 0.680097 0.67951 0.699317 0.661528 0.718462 0.680097 0.699317 0.661528 0.699317 0.680097 0.710504 0.734625 0.695823 0.756165 0.717606 0.734625 0.67951 0.695823 0.717606 0.734625 0.717606 0.695823 0.718462 0.699317 0.737652 0.67951 0.717606 0.699317 0.756165 0.737652 0.717606 0.699317 0.717606 0.737652 0.503511 0.521146 0.535992 0.537063 0.55416 0.521146 0.570092 0.535992 0.55416 0.521146 0.55416 0.535992 0.560134 0.584707 0.550296 0.60579 0.570691 0.584707 0.537063 0.550296 0.570691 0.584707 0.570691 0.550296 0.642395 0.60564 0.624569 0.570092 0.588699 0.60564 0.60579 0.624569 0.588699 0.60564 0.588699 0.624569 0.537063 0.570691 0.55416 0.60579 0.588699 0.570691 0.570092 0.55416 0.588699 0.570691 0.588699 0.55416 0.571511 0.613863 0.571096 0.650794 0.609266 0.613863 0.569803 0.571096 0.609266 0.613863 0.609266 0.571096 0.710504 0.671101 0.682818 0.632727 0.642476 0.671101 0.650794 0.682818 0.642476 0.671101 0.642476 0.682818 0.560134 0.566457 0.59564 0.569803 0.603606 0.566457 0.632727 0.59564 0.603606 0.566457 0.603606 0.59564 0.650794 0.642476 0.609266 0.632727 0.603606 0.642476 0.569803 0.609266 0.603606 0.642476 0.603606 0.609266 0.642395 0.624569 0.661528 0.60579 0.642144 0.624569 0.67951 0.661528 0.642144 0.624569 0.642144 0.661528 0.560134 0.59564 0.584707 0.632727 0.620589 0.59564 0.60579 0.584707 0.620589 0.59564 0.620589 0.584707 0.710504 0.695823 0.671101 0.67951 0.657723 0.695823 0.632727 0.671101 0.657723 0.695823 0.657723 0.671101 0.60579 0.620589 0.642144 0.632727 0.657723 0.620589 0.67951 0.642144 0.657723 0.620589 0.657723 0.642144 0.953734 0.905506 0.933617 0.856038 0.881258 0.905506 0.910226 0.933617 0.881258 0.905506 0.881258 0.933617 0.756122 0.773601 0.806 0.794552 0.827513 0.773601 0.856038 0.806 0.827513 0.773601 0.827513 0.806 0.849683 0.882459 0.819748 0.910226 0.852872 0.882459 0.794552 0.819748 0.852872 0.882459 0.852872 0.819748 0.856038 0.827513 0.881258 0.794552 0.852872 0.827513 0.910226 0.881258 0.852872 0.827513 0.852872 0.881258 0.571511 0.571776 0.614212 0.572899 0.618527 0.571776 0.659569 0.614212 0.618527 0.571776 0.618527 0.614212 0.579854 0.632766 0.575385 0.67931 0.624527 0.632766 0.572899 0.575385 0.624527 0.632766 0.624527 0.575385 0.756122 0.707071 0.720174 0.659569 0.66824 0.707071 0.67931 0.720174 0.66824 0.707071 0.66824 0.720174 0.572899 0.624527 0.618527 0.67931 0.66824 0.624527 0.659569 0.618527 0.66824 0.624527 0.66824 0.618527 0.636289 0.706126 0.613936 0.763275 0.679447 0.706126 0.597938 0.613936 0.679447 0.706126 0.679447 0.613936 0.849683 0.780647 0.810416 0.71149 0.734438 0.780647 0.763275 0.810416 0.734438 0.780647 0.734438 0.810416 0.579854 0.587097 0.644053 0.597938 0.659194 0.587097 0.71149 0.644053 0.659194 0.587097 0.659194 0.644053 0.763275 0.734438 0.679447 0.71149 0.659194 0.734438 0.597938 0.679447 0.659194 0.734438 0.659194 0.679447 0.756122 0.720174 0.773601 0.67931 0.736342 0.720174 0.794552 0.773601 0.736342 0.720174 0.736342 0.773601 0.579854 0.644053 0.632766 0.71149 0.693481 0.644053 0.67931 0.632766 0.693481 0.644053 0.693481 0.632766 0.849683 0.819748 0.780647 0.794552 0.756187 0.819748 0.71149 0.780647 0.756187 0.819748 0.756187 0.780647 0.67931 0.693481 0.736342 0.71149 0.756187 0.693481 0.794552 0.736342 0.756187 0.693481 0.756187 0.736342 0.236899 0.424564 0.339712 0.595869 0.487691 0.424564 0.415388 0.339712 0.487691 0.424564 0.487691 0.339712 0.876769 0.747794 0.746818 0.649432 0.62466 0.747794 0.595869 0.746818 0.62466 0.747794 0.62466 0.746818 0.519526 0.473377 0.574591 0.415388 0.536529 0.473377 0.649432 0.574591 0.536529 0.473377 0.536529 0.574591 0.595869 0.62466 0.487691 0.649432 0.536529 0.62466 0.415388 0.487691 0.536529 0.62466 0.536529 0.487691 1.21308 1.10054 1.15158 0.997095 1.0296 1.10054 1.07764 1.15158 1.0296 1.10054 1.0296 1.15158 0.832008 0.835924 0.908422 0.844304 0.925293 0.835924 0.997095 0.908422 0.925293 0.835924 0.925293 0.908422 0.876769 0.98604 0.856151 1.07764 0.950327 0.98604 0.844304 0.856151 0.950327 0.98604 0.950327 0.856151 0.997095 0.925293 1.0296 0.844304 0.950327 0.925293 1.07764 1.0296 0.950327 0.925293 0.950327 1.0296 0.636289 0.614077 0.671548 0.587882 0.653037 0.614077 0.715145 0.671548 0.653037 0.614077 0.653037 0.671548 0.519526 0.605643 0.556887 0.686952 0.631352 0.605643 0.587882 0.556887 0.631352 0.605643 0.631352 0.556887 0.832008 0.768194 0.762274 0.715145 0.701799 0.768194 0.686952 0.762274 0.701799 0.768194 0.701799 0.762274 0.587882 0.631352 0.653037 0.686952 0.701799 0.631352 0.715145 0.653037 0.701799 0.631352 0.701799 0.653037 0.876769 0.856151 0.747794 0.844304 0.752136 0.856151 0.649432 0.747794 0.752136 0.856151 0.752136 0.747794 0.832008 0.762274 0.835924 0.686952 0.757067 0.762274 0.844304 0.835924 0.757067 0.762274 0.757067 0.835924 0.519526 0.574591 0.605643 0.649432 0.669491 0.574591 0.686952 0.605643 0.669491 0.574591 0.669491 0.605643 0.844304 0.757067 0.752136 0.686952 0.669491 0.757067 0.649432 0.752136 0.669491 0.757067 0.669491 0.752136 -0.179644 -0.176338 -0.0540327 -0.165743 -0.0358946 -0.176338 0.0696589 -0.0540327 -0.0358946 -0.176338 -0.0358946 -0.0540327 -0.110666 0.0283901 -0.144681 0.137729 -0.00934145 0.0283901 -0.165743 -0.144681 -0.00934145 0.0283901 -0.00934145 -0.144681 0.297068 0.187543 0.225709 0.0696589 0.0993778 0.187543 0.137729 0.225709 0.0993778 0.187543 0.0993778 0.225709 -0.165743 -0.00934145 -0.0358946 0.137729 0.0993778 -0.00934145 0.0696589 -0.0358946 0.0993778 -0.00934145 0.0993778 -0.0358946 0.236899 0.339712 0.111571 0.415388 0.235175 0.339712 0.0121993 0.111571 0.235175 0.339712 0.235175 0.111571 0.519526 0.396413 0.473377 0.249122 0.325929 0.396413 0.415388 0.473377 0.325929 0.396413 0.325929 0.473377 -0.110666 -0.0593078 0.0801027 0.0121993 0.147403 -0.0593078 0.249122 0.0801027 0.147403 -0.0593078 0.147403 0.0801027 0.415388 0.325929 0.235175 0.249122 0.147403 0.325929 0.0121993 0.235175 0.147403 0.325929 0.147403 0.235175 0.636289 0.566316 0.614077 0.486627 0.535133 0.566316 0.587882 0.614077 0.535133 0.566316 0.535133 0.614077 0.297068 0.341036 0.396988 0.392091 0.443886 0.341036 0.486627 0.396988 0.443886 0.341036 0.443886 0.396988 0.519526 0.556887 0.452225 0.587882 0.497617 0.556887 0.392091 0.452225 0.497617 0.556887 0.497617 0.452225 0.486627 0.443886 0.535133 0.392091 0.497617 0.443886 0.587882 0.535133 0.497617 0.443886 0.497617 0.535133 -0.110666 0.0801027 0.0283901 0.249122 0.187361 0.0801027 0.137729 0.0283901 0.187361 0.0801027 0.187361 0.0283901 0.519526 0.452225 0.396413 0.392091 0.328569 0.452225 0.249122 0.396413 0.328569 0.452225 0.328569 0.396413 0.297068 0.225709 0.341036 0.137729 0.272384 0.225709 0.392091 0.341036 0.272384 0.225709 0.272384 0.341036 0.249122 0.328569 0.187361 0.392091 0.272384 0.328569 0.137729 0.187361 0.272384 0.328569 0.272384 0.187361 -0.613347 -0.607045 -0.504244 -0.585753 -0.483688 -0.607045 -0.393007 -0.504244 -0.483688 -0.607045 -0.483688 -0.504244 -0.498448 -0.407341 -0.549217 -0.327813 -0.451161 -0.407341 -0.585753 -0.549217 -0.451161 -0.407341 -0.451161 -0.549217 -0.194546 -0.288825 -0.257062 -0.393007 -0.364945 -0.288825 -0.327813 -0.257062 -0.364945 -0.288825 -0.364945 -0.257062 -0.585753 -0.451161 -0.483688 -0.327813 -0.364945 -0.451161 -0.393007 -0.483688 -0.364945 -0.451161 -0.364945 -0.483688 -0.179644 -0.141322 -0.272424 -0.100908 -0.215969 -0.141322 -0.358898 -0.272424 -0.215969 -0.141322 -0.215969 -0.272424 -0.0289168 -0.119446 -0.0645193 -0.228165 -0.166649 -0.119446 -0.100908 -0.0645193 -0.166649 -0.119446 -0.166649 -0.0645193 -0.498448 -0.434039 -0.352727 -0.358898 -0.289485 -0.434039 -0.228165 -0.352727 -0.289485 -0.434039 -0.289485 -0.352727 -0.100908 -0.166649 -0.215969 -0.228165 -0.289485 -0.166649 -0.358898 -0.215969 -0.289485 -0.166649 -0.289485 -0.215969 0.0898632 0.031503 0.0632505 -0.0354225 -0.00146072 0.031503 0.0347803 0.0632505 -0.00146072 0.031503 -0.00146072 0.0632505 -0.194546 -0.161046 -0.110137 -0.122089 -0.0765783 -0.161046 -0.0354225 -0.110137 -0.0765783 -0.161046 -0.0765783 -0.110137 -0.0289168 0.0038924 -0.0769758 0.0347803 -0.0374444 0.0038924 -0.122089 -0.0769758 -0.0374444 0.0038924 -0.0374444 -0.0769758 -0.0354225 -0.0765783 -0.00146072 -0.122089 -0.0374444 -0.0765783 0.0347803 -0.00146072 -0.0374444 -0.0765783 -0.0374444 -0.00146072 -0.498448 -0.352727 -0.407341 -0.228165 -0.281753 -0.352727 -0.327813 -0.407341 -0.281753 -0.352727 -0.281753 -0.407341 -0.0289168 -0.0769758 -0.119446 -0.122089 -0.17242 -0.0769758 -0.228165 -0.119446 -0.17242 -0.0769758 -0.17242 -0.119446 -0.194546 -0.257062 -0.161046 -0.327813 -0.217824 -0.257062 -0.122089 -0.161046 -0.217824 -0.257062 -0.217824 -0.161046 -0.228165 -0.17242 -0.281753 -0.122089 -0.217824 -0.17242 -0.327813 -0.281753 -0.217824 -0.17242 -0.217824 -0.281753 1.30501 1.2453 1.24983 1.18874 1.18594 1.2453 1.18456 1.24983 1.18594 1.2453 1.18594 1.24983 1.09208 1.07944 1.13805 1.0651 1.12979 1.07944 1.18874 1.13805 1.12979 1.07944 1.12979 1.13805 1.0235 1.10861 1.0465 1.18456 1.12081 1.10861 1.0651 1.0465 1.12081 1.10861 1.12081 1.0465 1.18874 1.12979 1.18594 1.0651 1.12081 1.12979 1.18456 1.18594 1.12081 1.12979 1.12081 1.18594 0.953734 0.933617 0.982373 0.910226 0.962924 0.933617 1.01456 0.982373 0.962924 0.933617 0.962924 0.982373 0.849683 0.913402 0.882459 0.975871 0.940514 0.913402 0.910226 0.882459 0.940514 0.913402 0.940514 0.882459 1.09208 1.05112 1.03538 1.01456 0.996689 1.05112 0.975871 1.03538 0.996689 1.05112 0.996689 1.03538 0.910226 0.940514 0.962924 0.975871 0.996689 0.940514 1.01456 0.962924 0.996689 0.940514 0.996689 0.962924 0.636289 0.733094 0.706126 0.832456 0.793192 0.733094 0.763275 0.706126 0.793192 0.733094 0.793192 0.706126 1.0235 0.966178 0.930352 0.919308 0.880749 0.966178 0.832456 0.930352 0.880749 0.966178 0.880749 0.930352 0.849683 0.810416 0.881024 0.763275 0.84153 0.810416 0.919308 0.881024 0.84153 0.810416 0.84153 0.881024 0.832456 0.880749 0.793192 0.919308 0.84153 0.880749 0.763275 0.793192 0.84153 0.880749 0.84153 0.793192 1.09208 1.03538 1.07944 0.975871 1.0172 1.03538 1.0651 1.07944 1.0172 1.03538 1.0172 1.07944 0.849683 0.881024 0.913402 0.919308 0.950271 0.881024 0.975871 0.913402 0.950271 0.881024 0.950271 0.913402 1.0235 1.0465 0.966178 1.0651 0.994321 1.0465 0.919308 0.966178 0.994321 1.0465 0.994321 0.966178 0.975871 0.950271 1.0172 0.919308 0.994321 0.950271 1.0651 1.0172 0.994321 0.950271 0.994321 1.0172 0.571511 0.524536 0.571776 0.473005 0.520894 0.524536 0.572899 0.571776 0.520894 0.524536 0.520894 0.571776 0.356934 0.402906 0.417077 0.455827 0.464536 0.402906 0.473005 0.417077 0.464536 0.402906 0.464536 0.417077 0.579854 0.575385 0.515277 0.572899 0.517636 0.575385 0.455827 0.515277 0.517636 0.575385 0.517636 0.515277 0.473005 0.464536 0.520894 0.455827 0.517636 0.464536 0.572899 0.520894 0.517636 0.464536 0.517636 0.520894 0.0898632 0.11147 0.158281 0.145499 0.18926 0.11147 0.226501 0.158281 0.18926 0.11147 0.18926 0.158281 0.256435 0.286358 0.19351 0.312566 0.231717 0.286358 0.145499 0.19351 0.231717 0.286358 0.231717 0.19351 0.356934 0.293168 0.336039 0.226501 0.264495 0.293168 0.312566 0.336039 0.264495 0.293168 0.264495 0.336039 0.145499 0.231717 0.18926 0.312566 0.264495 0.231717 0.226501 0.18926 0.264495 0.231717 0.264495 0.18926 0.636289 0.613936 0.527976 0.597938 0.51971 0.613936 0.425724 0.527976 0.51971 0.613936 0.51971 0.527976 0.579854 0.514325 0.587097 0.438917 0.515454 0.514325 0.597938 0.587097 0.515454 0.514325 0.515454 0.587097 0.256435 0.334336 0.353378 0.425724 0.431705 0.334336 0.438917 0.353378 0.431705 0.334336 0.431705 0.353378 0.597938 0.515454 0.51971 0.438917 0.431705 0.515454 0.425724 0.51971 0.431705 0.515454 0.431705 0.51971 0.356934 0.336039 0.402906 0.312566 0.38753 0.336039 0.455827 0.402906 0.38753 0.336039 0.38753 0.402906 0.256435 0.353378 0.286358 0.438917 0.370945 0.353378 0.312566 0.286358 0.370945 0.353378 0.370945 0.286358 0.579854 0.515277 0.514325 0.455827 0.447197 0.515277 0.438917 0.514325 0.447197 0.515277 0.447197 0.514325 0.312566 0.370945 0.38753 0.438917 0.447197 0.370945 0.455827 0.38753 0.447197 0.370945 0.447197 0.38753 0.0898632 0.0632505 0.11147 0.0347803 0.088771 0.0632505 0.145499 0.11147 0.088771 0.0632505 0.088771 0.11147 -0.0289168 0.041023 0.0038924 0.113016 0.065324 0.041023 0.0347803 0.0038924 0.065324 0.041023 0.065324 0.0038924 0.256435 0.19351 0.185053 0.145499 0.128796 0.19351 0.113016 0.185053 0.128796 0.19351 0.128796 0.185053 0.0347803 0.065324 0.088771 0.113016 0.128796 0.065324 0.145499 0.088771 0.128796 0.065324 0.128796 0.088771 -0.179644 -0.0540327 -0.141322 0.0696589 -0.0340122 -0.0540327 -0.100908 -0.141322 -0.0340122 -0.0540327 -0.0340122 -0.141322 0.297068 0.177613 0.187543 0.0849103 0.0734628 0.177613 0.0696589 0.187543 0.0734628 0.177613 0.0734628 0.187543 -0.0289168 -0.0645193 0.0158795 -0.100908 -0.00851898 -0.0645193 0.0849103 0.0158795 -0.00851898 -0.0645193 -0.00851898 0.0158795 0.0696589 0.0734628 -0.0340122 0.0849103 -0.00851898 0.0734628 -0.100908 -0.0340122 -0.00851898 0.0734628 -0.00851898 -0.0340122 0.636289 0.527976 0.566316 0.425724 0.451568 0.527976 0.486627 0.566316 0.451568 0.527976 0.451568 0.566316 0.256435 0.258096 0.334336 0.264829 0.347995 0.258096 0.425724 0.334336 0.347995 0.258096 0.347995 0.334336 0.297068 0.396988 0.276207 0.486627 0.367866 0.396988 0.264829 0.276207 0.367866 0.396988 0.367866 0.276207 0.425724 0.347995 0.451568 0.264829 0.367866 0.347995 0.486627 0.451568 0.367866 0.347995 0.367866 0.451568 -0.0289168 0.0158795 0.041023 0.0849103 0.097772 0.0158795 0.113016 0.041023 0.097772 0.0158795 0.097772 0.041023 0.297068 0.276207 0.177613 0.264829 0.176641 0.276207 0.0849103 0.177613 0.176641 0.276207 0.176641 0.177613 0.256435 0.185053 0.258096 0.113016 0.1791 0.185053 0.264829 0.258096 0.1791 0.185053 0.1791 0.258096 0.0849103 0.176641 0.097772 0.264829 0.1791 0.176641 0.113016 0.097772 0.1791 0.176641 0.1791 0.097772 </DataArray>