<?xml version="1.0" encoding="UTF-8"?>
<VTKFile type="UnstructuredGrid" version="0.1" byte_order="LittleEndian" compressor="vtkZLibDataCompressor">
    <UnstructuredGrid>
        <Piece NumberOfPoints="1920" NumberOfCells="640">
            <Points>
                <DataArray type="Float64" Name="Array" NumberOfComponents="3" format="ascii" RangeMin="0" RangeMax="16">0 11.9916 0 0 11.4966 0 0.521991 11.7285 0 0 11.0016 0 0.521991 11.2335 0 0 11.4966 0 1.04398 11.4655 0 0.521991 11.7285 0 0.521991 11.2335 0 0 11.4966 0 0.521991 11.2335 0 0.521991 11.7285 0 0 10.0115 0 0.521991 10.2434 0 0 10.5065 0 1.04398 10.4754 0 0.521991 10.7385 0 0.521991 10.2434 0 0 11.0016 0 0 10.5065 0 0.521991 10.7385 0 0.521991 10.2434 0 0.521991 10.7385 0 0 10.5065 0 2.08796 10.9393 0 1.56597 11.2024 0 1.56597 10.7073 0 1.04398 11.4655 0 1.04398 10.9704 0 1.56597 11.2024 0 1.04398 10.4754 0 1.56597 10.7073 0 1.04398 10.9704 0 1.56597 11.2024 0 1.04398 10.9704 0 1.56597 10.7073 0 0 11.0016 0 0.521991 10.7385 0 0.521991 11.2335 0 1.04398 10.4754 0 1.04398 10.9704 0 0.521991 10.7385 0 1.04398 11.4655 0 0.521991 11.2335 0 1.04398 10.9704 0 0.521991 10.7385 0 1.04398 10.9704 0 0.521991 11.2335 0 0 8.03136 0 0.521991 8.2633 0 0 8.52639 0 1.04398 8.49525 0 0.521991 8.75834 0 0.521991 8.2633 0 0 9.02142 0 0 8.52639 0 0.521991 8.75834 0 0.521991 8.2633 0 0.521991 8.75834 0 0 8.52639 0 2.08796 8.95915 0 1.56597 9.22223 0 1.56597 8.7272 0 1.04398 9.48532 0 1.04398 8.99028 0 1.56597 9.22223 0 1.04398 8.49525 0 1.56597 8.7272 0 1.04398 8.99028 0 1.56597 9.22223 0 1.04398 8.99028 0 1.56597 8.7272 0 0 10.0115 0 0 9.51646 0 0.521991 9.74841 0 0 9.02142 0 0.521991 9.25337 0 0 9.51646 0 1.04398 9.48532 0 0.521991 9.74841 0 0.521991 9.25337 0 0 9.51646 0 0.521991 9.25337 0 0.521991 9.74841 0 1.04398 8.49525 0 1.04398 8.99028 0 0.521991 8.75834 0 1.04398 9.48532 0 0.521991 9.25337 0 1.04398 8.99028 0 0 9.02142 0 0.521991 8.75834 0 0.521991 9.25337 0 1.04398 8.99028 0 0.521991 9.25337 0 0.521991 8.75834 0 4.17593 9.88693 0 3.65394 10.15 0 3.65394 9.65499 0 3.13195 10.4131 0 3.13195 9.91807 0 3.65394 10.15 0 3.13195 9.42304 0 3.65394 9.65499 0 3.13195 9.91807 0 3.65394 10.15 0 3.13195 9.91807 0 3.65394 9.65499 0 2.08796 10.9393 0 2.08796 10.4442 0 2.60995 10.6762 0 2.08796 9.94921 0 2.60995 10.1812 0 2.08796 10.4442 0 3.13195 10.4131 0 2.60995 10.6762 0 2.60995 10.1812 0 2.08796 10.4442 0 2.60995 10.1812 0 2.60995 10.6762 0 2.08796 8.95915 0 2.60995 9.19109 0 2.08796 9.45418 0 3.13195 9.42304 0 2.60995 9.68613 0 2.60995 9.19109 0 2.08796 9.94921 0 2.08796 9.45418 0 2.60995 9.68613 0 2.60995 9.19109 0 2.60995 9.68613 0 2.08796 9.45418 0 3.13195 10.4131 0 2.60995 10.1812 0 3.13195 9.91807 0 2.08796 9.94921 0 2.60995 9.68613 0 2.60995 10.1812 0 3.13195 9.42304 0 3.13195 9.91807 0 2.60995 9.68613 0 2.60995 10.1812 0 2.60995 9.68613 0 3.13195 9.91807 0 0 10.0115 0 0.521991 9.74841 0 0.521991 10.2434 0 1.04398 9.48532 0 1.04398 9.98035 0 0.521991 9.74841 0 1.04398 10.4754 0 0.521991 10.2434 0 1.04398 9.98035 0 0.521991 9.74841 0 1.04398 9.98035 0 0.521991 10.2434 0 2.08796 8.95915 0 2.08796 9.45418 0 1.56597 9.22223 0 2.08796 9.94921 0 1.56597 9.71727 0 2.08796 9.45418 0 1.04398 9.48532 0 1.56597 9.22223 0 1.56597 9.71727 0 2.08796 9.45418 0 1.56597 9.71727 0 1.56597 9.22223 0 2.08796 10.9393 0 1.56597 10.7073 0 2.08796 10.4442 0 1.04398 10.4754 0 1.56597 10.2123 0 1.56597 10.7073 0 2.08796 9.94921 0 2.08796 10.4442 0 1.56597 10.2123 0 1.56597 10.7073 0 1.56597 10.2123 0 2.08796 10.4442 0 1.04398 9.48532 0 1.56597 9.71727 0 1.04398 9.98035 0 2.08796 9.94921 0 1.56597 10.2123 0 1.56597 9.71727 0 1.04398 10.4754 0 1.04398 9.98035 0 1.56597 10.2123 0 1.56597 9.71727 0 1.56597 10.2123 0 1.04398 9.98035 0 0 16 0 0 15.499 0 0.558017 16 0 0 14.9979 0 0.558017 15.499 0 0 15.499 0 1.11603 16 0 0.558017 16 0 0.558017 15.499 0 0 15.499 0 0.558017 15.499 0 0.558017 16 0 0 13.9958 0 0.558017 14.4969 0 0 14.4969 0 1.11603 14.9979 0 0.558017 14.9979 0 0.558017 14.4969 0 0 14.9979 0 0 14.4969 0 0.558017 14.9979 0 0.558017 14.4969 0 0.558017 14.9979 0 0 14.4969 0 2.23207 16 0 1.67405 16 0 1.67405 15.499 0 1.11603 16 0 1.11603 15.499 0 1.67405 16 0 1.11603 14.9979 0 1.67405 15.499 0 1.11603 15.499 0 1.67405 16 0 1.11603 15.499 0 1.67405 15.499 0 0 14.9979 0 0.558017 14.9979 0 0.558017 15.499 0 1.11603 14.9979 0 1.11603 15.499 0 0.558017 14.9979 0 1.11603 16 0 0.558017 15.499 0 1.11603 15.499 0 0.558017 14.9979 0 1.11603 15.499 0 0.558017 15.499 0 0 11.9916 0 0.558017 12.4927 0 0 12.4927 0 1.11603 12.9937 0 0.558017 12.9937 0 0.558017 12.4927 0 0 12.9937 0 0 12.4927 0 0.558017 12.9937 0 0.558017 12.4927 0 0.558017 12.9937 0 0 12.4927 0 2.23207 13.9958 0 1.67405 13.9958 0 1.67405 13.4948 0 1.11603 13.9958 0 1.11603 13.4948 0 1.67405 13.9958 0 1.11603 12.9937 0 1.67405 13.4948 0 1.11603 13.4948 0 1.67405 13.9958 0 1.11603 13.4948 0 1.67405 13.4948 0 0 13.9958 0 0 13.4948 0 0.558017 13.9958 0 0 12.9937 0 0.558017 13.4948 0 0 13.4948 0 1.11603 13.9958 0 0.558017 13.9958 0 0.558017 13.4948 0 0 13.4948 0 0.558017 13.4948 0 0.558017 13.9958 0 1.11603 12.9937 0 1.11603 13.4948 0 0.558017 12.9937 0 1.11603 13.9958 0 0.558017 13.4948 0 1.11603 13.4948 0 0 12.9937 0 0.558017 12.9937 0 0.558017 13.4948 0 1.11603 13.4948 0 0.558017 13.4948 0 0.558017 12.9937 0 4.46413 16 0 3.90612 16 0 3.90612 15.499 0 3.3481 16 0 3.3481 15.499 0 3.90612 16 0 3.3481 14.9979 0 3.90612 15.499 0 3.3481 15.499 0 3.90612 16 0 3.3481 15.499 0 3.90612 15.499 0 2.23207 16 0 2.23207 15.499 0 2.79008 16 0 2.23207 14.9979 0 2.79008 15.499 0 2.23207 15.499 0 3.3481 16 0 2.79008 16 0 2.79008 15.499 0 2.23207 15.499 0 2.79008 15.499 0 2.79008 16 0 2.23207 13.9958 0 2.79008 14.4969 0 2.23207 14.4969 0 3.3481 14.9979 0 2.79008 14.9979 0 2.79008 14.4969 0 2.23207 14.9979 0 2.23207 14.4969 0 2.79008 14.9979 0 2.79008 14.4969 0 2.79008 14.9979 0 2.23207 14.4969 0 3.3481 16 0 2.79008 15.499 0 3.3481 15.499 0 2.23207 14.9979 0 2.79008 14.9979 0 2.79008 15.499 0 3.3481 14.9979 0 3.3481 15.499 0 2.79008 14.9979 0 2.79008 15.499 0 2.79008 14.9979 0 3.3481 15.499 0 0 13.9958 0 0.558017 13.9958 0 0.558017 14.4969 0 1.11603 13.9958 0 1.11603 14.4969 0 0.558017 13.9958 0 1.11603 14.9979 0 0.558017 14.4969 0 1.11603 14.4969 0 0.558017 13.9958 0 1.11603 14.4969 0 0.558017 14.4969 0 2.23207 13.9958 0 2.23207 14.4969 0 1.67405 13.9958 0 2.23207 14.9979 0 1.67405 14.4969 0 2.23207 14.4969 0 1.11603 13.9958 0 1.67405 13.9958 0 1.67405 14.4969 0 2.23207 14.4969 0 1.67405 14.4969 0 1.67405 13.9958 0 2.23207 16 0 1.67405 15.499 0 2.23207 15.499 0 1.11603 14.9979 0 1.67405 14.9979 0 1.67405 15.499 0 2.23207 14.9979 0 2.23207 15.499 0 1.67405 14.9979 0 1.67405 15.499 0 1.67405 14.9979 0 2.23207 15.499 0 1.11603 13.9958 0 1.67405 14.4969 0 1.11603 14.4969 0 2.23207 14.9979 0 1.67405 14.9979 0 1.67405 14.4969 0 1.11603 14.9979 0 1.11603 14.4969 0 1.67405 14.9979 0 1.67405 14.4969 0 1.67405 14.9979 0 1.11603 14.4969 0 4.46413 16 0 3.90612 15.499 0 4.42811 15.2359 0 3.3481 14.9979 0 3.87009 14.7348 0 3.90612 15.499 0 4.39208 14.4717 0 4.42811 15.2359 0 3.87009 14.7348 0 3.90612 15.499 0 3.87009 14.7348 0 4.42811 15.2359 0 2.23207 13.9958 0 2.75406 13.7327 0 2.79008 14.4969 0 3.27605 13.4696 0 3.31207 14.2338 0 2.75406 13.7327 0 3.3481 14.9979 0 2.79008 14.4969 0 3.31207 14.2338 0 2.75406 13.7327 0 3.31207 14.2338 0 2.79008 14.4969 0 4.32003 12.9435 0 4.35606 13.7076 0 3.79804 13.2066 0 4.39208 14.4717 0 3.83407 13.9707 0 4.35606 13.7076 0 3.27605 13.4696 0 3.79804 13.2066 0 3.83407 13.9707 0 4.35606 13.7076 0 3.83407 13.9707 0 3.79804 13.2066 0 3.3481 14.9979 0 3.31207 14.2338 0 3.87009 14.7348 0 3.27605 13.4696 0 3.83407 13.9707 0 3.31207 14.2338 0 4.39208 14.4717 0 3.87009 14.7348 0 3.83407 13.9707 0 3.31207 14.2338 0 3.83407 13.9707 0 3.87009 14.7348 0 0 11.9916 0 0.521991 11.7285 0 0.558017 12.4927 0 1.04398 11.4655 0 1.08001 12.2296 0 0.521991 11.7285 0 1.11603 12.9937 0 0.558017 12.4927 0 1.08001 12.2296 0 0.521991 11.7285 0 1.08001 12.2296 0 0.558017 12.4927 0 2.08796 10.9393 0 2.12399 11.7034 0 1.56597 11.2024 0 2.16002 12.4675 0 1.602 11.9665 0 2.12399 11.7034 0 1.04398 11.4655 0 1.56597 11.2024 0 1.602 11.9665 0 2.12399 11.7034 0 1.602 11.9665 0 1.56597 11.2024 0 2.23207 13.9958 0 1.67405 13.4948 0 2.19604 13.2317 0 1.11603 12.9937 0 1.63802 12.7306 0 1.67405 13.4948 0 2.16002 12.4675 0 2.19604 13.2317 0 1.63802 12.7306 0 1.67405 13.4948 0 1.63802 12.7306 0 2.19604 13.2317 0 1.04398 11.4655 0 1.602 11.9665 0 1.08001 12.2296 0 2.16002 12.4675 0 1.63802 12.7306 0 1.602 11.9665 0 1.11603 12.9937 0 1.08001 12.2296 0 1.63802 12.7306 0 1.602 11.9665 0 1.63802 12.7306 0 1.08001 12.2296 0 4.17593 9.88693 0 4.21195 10.6511 0 3.65394 10.15 0 4.24798 11.4152 0 3.68996 10.9142 0 4.21195 10.6511 0 3.13195 10.4131 0 3.65394 10.15 0 3.68996 10.9142 0 4.21195 10.6511 0 3.68996 10.9142 0 3.65394 10.15 0 4.32003 12.9435 0 3.76201 12.4424 0 4.28401 12.1793 0 3.204 11.9414 0 3.72599 11.6783 0 3.76201 12.4424 0 4.24798 11.4152 0 4.28401 12.1793 0 3.72599 11.6783 0 3.76201 12.4424 0 3.72599 11.6783 0 4.28401 12.1793 0 2.08796 10.9393 0 2.60995 10.6762 0 2.64598 11.4403 0 3.13195 10.4131 0 3.16797 11.1772 0 2.60995 10.6762 0 3.204 11.9414 0 2.64598 11.4403 0 3.16797 11.1772 0 2.60995 10.6762 0 3.16797 11.1772 0 2.64598 11.4403 0 4.24798 11.4152 0 3.72599 11.6783 0 3.68996 10.9142 0 3.204 11.9414 0 3.16797 11.1772 0 3.72599 11.6783 0 3.13195 10.4131 0 3.68996 10.9142 0 3.16797 11.1772 0 3.72599 11.6783 0 3.16797 11.1772 0 3.68996 10.9142 0 2.23207 13.9958 0 2.19604 13.2317 0 2.75406 13.7327 0 2.16002 12.4675 0 2.71803 12.9686 0 2.19604 13.2317 0 3.27605 13.4696 0 2.75406 13.7327 0 2.71803 12.9686 0 2.19604 13.2317 0 2.71803 12.9686 0 2.75406 13.7327 0 2.08796 10.9393 0 2.64598 11.4403 0 2.12399 11.7034 0 3.204 11.9414 0 2.68201 12.2045 0 2.64598 11.4403 0 2.16002 12.4675 0 2.12399 11.7034 0 2.68201 12.2045 0 2.64598 11.4403 0 2.68201 12.2045 0 2.12399 11.7034 0 4.32003 12.9435 0 3.79804 13.2066 0 3.76201 12.4424 0 3.27605 13.4696 0 3.24002 12.7055 0 3.79804 13.206
[...]
            <PointData>
                <DataArray Name="p" type="Float64" format="ascii">1.93313 1.90002 1.90983 1.87474 1.88298 1.90002 1.88488 1.90983 1.88298 1.90002 1.88298 1.90983 1.84046 1.84495 1.85527 1.84503 1.86151 1.84495 1.87474 1.85527 1.86151 1.84495 1.86151 1.85527 1.82966 1.85668 1.8401 1.88488 1.86234 1.85668 1.84503 1.8401 1.86234 1.85668 1.86234 1.8401 1.87474 1.86151 1.88298 1.84503 1.86234 1.86151 1.88488 1.88298 1.86234 1.86151 1.86234 1.88298 1.81715 1.81591 1.81824 1.812 1.81836 1.81591 1.82233 1.81824 1.81836 1.81591 1.81836 1.81824 1.79607 1.8098 1.8054 1.82211 1.81559 1.8098 1.812 1.8054 1.81559 1.8098 1.81559 1.8054 1.84046 1.82964 1.83258 1.82233 1.82384 1.82964 1.82211 1.83258 1.82384 1.82964 1.82384 1.83258 1.812 1.81559 1.81836 1.82211 1.82384 1.81559 1.82233 1.81836 1.82384 1.81559 1.82384 1.81836 1.73282 1.75456 1.75222 1.77808 1.77305 1.75456 1.76937 1.75222 1.77305 1.75456 1.77305 1.75222 1.82966 1.81728 1.80293 1.80781 1.79486 1.81728 1.77808 1.80293 1.79486 1.81728 1.79486 1.80293 1.79607 1.78405 1.8008 1.76937 1.78855 1.78405 1.80781 1.8008 1.78855 1.78405 1.78855 1.8008 1.77808 1.79486 1.77305 1.80781 1.78855 1.79486 1.76937 1.77305 1.78855 1.79486 1.78855 1.77305 1.84046 1.83258 1.84495 1.82211 1.8318 1.83258 1.84503 1.84495 1.8318 1.83258 1.8318 1.84495 1.79607 1.8008 1.8098 1.80781 1.81688 1.8008 1.82211 1.8098 1.81688 1.8008 1.81688 1.8098 1.82966 1.8401 1.81728 1.84503 1.82687 1.8401 1.80781 1.81728 1.82687 1.8401 1.82687 1.81728 1.82211 1.81688 1.8318 1.80781 1.82687 1.81688 1.84503 1.8318 1.82687 1.81688 1.82687 1.8318 4.63012 3.49972 2.83882 2.51732 2.78357 3.49972 2.17347 2.83882 2.78357 3.49972 2.78357 2.83882 2.20619 2.30469 2.37257 2.26082 2.56054 2.30469 2.51732 2.37257 2.56054 2.30469 2.56054 2.37257 1.85482 2.02481 2.06919 2.17347 2.29881 2.02481 2.26082 2.06919 2.29881 2.02481 2.29881 2.06919 2.51732 2.56054 2.78357 2.26082 2.29881 2.56054 2.17347 2.78357 2.29881 2.56054 2.29881 2.78357 1.93313 1.96749 1.97487 1.99216 2.02015 1.96749 2.03038 1.97487 2.02015 1.96749 2.02015 1.97487 1.9402 2.03103 1.98673 2.11556 2.04838 2.03103 1.99216 1.98673 2.04838 2.03103 2.04838 1.98673 2.20619 2.10337 2.18525 2.03038 2.08889 2.10337 2.11556 2.18525 2.08889 2.10337 2.08889 2.18525 1.99216 2.04838 2.02015 2.11556 2.08889 2.04838 2.03038 2.02015 2.08889 2.04838 2.08889 2.02015 1.60277 1.64809 1.66768 1.70031 1.72651 1.64809 1.75643 1.66768 1.72651 1.64809 1.72651 1.66768 1.85482 1.90434 1.77408 1.94122 1.80291 1.90434 1.70031 1.77408 1.80291 1.90434 1.80291 1.77408 1.9402 1.85549 1.95801 1.75643 1.83453 1.85549 1.94122 1.95801 1.83453 1.85549 1.83453 1.95801 1.70031 1.80291 1.72651 1.94122 1.83453 1.80291 1.75643 1.72651 1.83453 1.80291 1.83453 1.72651 2.20619 2.18525 2.30469 2.11556 2.21133 2.18525 2.26082 2.30469 2.21133 2.18525 2.21133 2.30469 1.9402 1.95801 2.03103 1.94122 2.05875 1.95801 2.11556 2.03103 2.05875 1.95801 2.05875 2.03103 1.85482 2.06919 1.90434 2.26082 2.09378 2.06919 1.94122 1.90434 2.09378 2.06919 2.09378 1.90434 2.11556 2.05875 2.21133 1.94122 2.09378 2.05875 2.26082 2.21133 2.09378 2.05875 2.09378 2.21133 1.60277 1.66768 1.63224 1.75643 1.70759 1.66768 1.67089 1.63224 1.70759 1.66768 1.70759 1.63224 1.9402 1.86768 1.85549 1.80507 1.79457 1.86768 1.75643 1.85549 1.79457 1.86768 1.79457 1.85549 1.71737 1.69999 1.75845 1.67089 1.74248 1.69999 1.80507 1.75845 1.74248 1.69999 1.74248 1.75845 1.75643 1.79457 1.70759 1.80507 1.74248 1.79457 1.67089 1.70759 1.74248 1.79457 1.74248 1.70759 1.93313 1.90983 1.96749 1.88488 1.92817 1.90983 1.99216 1.96749 1.92817 1.90983 1.92817 1.96749 1.82966 1.85191 1.85668 1.88133 1.88966 1.85191 1.88488 1.85668 1.88966 1.85191 1.88966 1.85668 1.9402 1.98673 1.91377 1.99216 1.93236 1.98673 1.88133 1.91377 1.93236 1.98673 1.93236 1.91377 1.88488 1.88966 1.92817 1.88133 1.93236 1.88966 1.99216 1.92817 1.93236 1.88966 1.93236 1.92817 1.73282 1.73212 1.75456 1.73028 1.75771 1.73212 1.77808 1.75456 1.75771 1.73212 1.75771 1.75456 1.71737 1.76149 1.72671 1.7955 1.76092 1.76149 1.73028 1.72671 1.76092 1.76149 1.76092 1.72671 1.82966 1.80293 1.81765 1.77808 1.78611 1.80293 1.7955 1.81765 1.78611 1.80293 1.78611 1.81765 1.73028 1.76092 1.75771 1.7955 1.78611 1.76092 1.77808 1.75771 1.78611 1.76092 1.78611 1.75771 1.9402 1.91377 1.86768 1.88133 1.85289 1.91377 1.80507 1.86768 1.85289 1.91377 1.85289 1.86768 1.82966 1.81765 1.85191 1.7955 1.83524 1.81765 1.88133 1.85191 1.83524 1.81765 1.83524 1.85191 1.71737 1.75845 1.76149 1.80507 1.80429 1.75845 1.7955 1.76149 1.80429 1.75845 1.80429 1.76149 1.88133 1.83524 1.85289 1.7955 1.80429 1.83524 1.80507 1.85289 1.80429 1.83524 1.80429 1.85289 1.33329 1.36672 1.34441 1.39917 1.37878 1.36672 1.36362 1.34441 1.37878 1.36672 1.37878 1.34441 1.4632 1.44549 1.43112 1.43273 1.4123 1.44549 1.39917 1.43112 1.4123 1.44549 1.4123 1.43112 1.43213 1.39494 1.42978 1.36362 1.39842 1.39494 1.43273 1.42978 1.39842 1.39494 1.39842 1.42978 1.39917 1.4123 1.37878 1.43273 1.39842 1.4123 1.36362 1.37878 1.39842 1.4123 1.39842 1.37878 1.60277 1.59009 1.56859 1.57735 1.54908 1.59009 1.52952 1.56859 1.54908 1.59009 1.54908 1.56859 1.56768 1.53453 1.57279 1.50189 1.53896 1.53453 1.57735 1.57279 1.53896 1.53453 1.53896 1.57279 1.4632 1.49526 1.47895 1.52952 1.51366 1.49526 1.50189 1.47895 1.51366 1.49526 1.51366 1.47895 1.57735 1.53896 1.54908 1.50189 1.51366 1.53896 1.52952 1.54908 1.51366 1.53896 1.51366 1.54908 1.56291 1.53437 1.55926 1.50299 1.53093 1.53437 1.5595 1.55926 1.53093 1.53437 1.53093 1.55926 1.43213 1.46552 1.46866 1.49875 1.49979 1.46552 1.50299 1.46866 1.49979 1.46552 1.49979 1.46866 1.56768 1.56288 1.53257 1.5595 1.5307 1.56288 1.49875 1.53257 1.5307 1.56288 1.5307 1.53257 1.50299 1.49979 1.53093 1.49875 1.5307 1.49979 1.5595 1.53093 1.5307 1.49979 1.5307 1.53093 1.4632 1.47895 1.44549 1.50189 1.46722 1.47895 1.43273 1.44549 1.46722 1.47895 1.46722 1.44549 1.56768 1.53257 1.53453 1.49875 1.49922 1.53257 1.50189 1.53453 1.49922 1.53257 1.49922 1.53453 1.43213 1.42978 1.46552 1.43273 1.464 1.42978 1.49875 1.46552 1.464 1.42978 1.464 1.46552 1.50189 1.49922 1.46722 1.49875 1.464 1.49922 1.43273 1.46722 1.464 1.49922 1.464 1.46722 1.60277 1.63224 1.59009 1.67089 1.62126 1.63224 1.57735 1.59009 1.62126 1.63224 1.62126 1.59009 1.71737 1.68021 1.69999 1.6424 1.6575 1.68021 1.67089 1.69999 1.6575 1.68021 1.6575 1.69999 1.56768 1.57279 1.60516 1.57735 1.61437 1.57279 1.6424 1.60516 1.61437 1.57279 1.61437 1.60516 1.67089 1.6575 1.62126 1.6424 1.61437 1.6575 1.57735 1.62126 1.61437 1.6575 1.61437 1.62126 1.73282 1.7141 1.73212 1.69482 1.71008 1.7141 1.73028 1.73212 1.71008 1.7141 1.71008 1.73212 1.6534 1.6633 1.6742 1.67721 1.68755 1.6633 1.69482 1.6742 1.68755 1.6633 1.68755 1.6742 1.71737 1.72671 1.69474 1.73028 1.70395 1.72671 1.67721 1.69474 1.70395 1.72671 1.70395 1.69474 1.69482 1.68755 1.71008 1.67721 1.70395 1.68755 1.73028 1.71008 1.70395 1.68755 1.70395 1.71008 1.56291 1.55926 1.58665 1.5595 1.58661 1.55926 1.60956 1.58665 1.58661 1.55926 1.58661 1.58665 1.56768 1.59666 1.56288 1.61988 1.59009 1.59666 1.5595 1.56288 1.59009 1.59666 1.59009 1.56288 1.6534 1.63163 1.63865 1.60956 1.61297 1.63163 1.61988 1.63865 1.61297 1.63163 1.61297 1.63865 1.5595 1.59009 1.58661 1.61988 1.61297 1.59009 1.60956 1.58661 1.61297 1.59009 1.61297 1.58661 1.71737 1.69474 1.68021 1.67721 1.6629 1.69474 1.6424 1.68021 1.6629 1.69474 1.6629 1.68021 1.6534 1.63865 1.6633 1.61988 1.64878 1.63865 1.67721 1.6633 1.64878 1.63865 1.64878 1.6633 1.56768 1.60516 1.59666 1.6424 1.63003 1.60516 1.61988 1.59666 1.63003 1.60516 1.63003 1.59666 1.67721 1.64878 1.6629 1.61988 1.63003 1.64878 1.6424 1.6629 1.63003 1.64878 1.63003 1.6629 1.56291 1.58665 1.58395 1.60956 1.60425 1.58665 1.6021 1.58395 1.60425 1.58665 1.60425 1.58395 1.6534 1.64353 1.63163 1.6362 1.62414 1.64353 1.60956 1.63163 1.62414 1.64353 1.62414 1.63163 1.62817 1.61693 1.63102 1.6021 1.61913 1.61693 1.6362 1.63102 1.61913 1.61693 1.61913 1.63102 1.60956 1.62414 1.60425 1.6362 1.61913 1.62414 1.6021 1.60425 1.61913 1.62414 1.61913 1.60425 1.73282 1.71769 1.7141 1.70419 1.70007 1.71769 1.69482 1.7141 1.70007 1.71769 1.70007 1.7141 1.68026 1.67612 1.69178 1.67035 1.68732 1.67612 1.70419 1.69178 1.68732 1.67612 1.68732 1.69178 1.6534 1.6742 1.66284 1.69482 1.68156 1.6742 1.67035 1.66284 1.68156 1.6742 1.68156 1.66284 1.70419 1.68732 1.70007 1.67035 1.68156 1.68732 1.69482 1.70007 1.68156 1.68732 1.68156 1.70007 1.63614 1.63929 1.64765 1.63926 1.64793 1.63929 1.65854 1.64765 1.64793 1.63929 1.64793 1.64765 1.62817 1.63978 1.6356 1.65244 1.64539 1.63978 1.63926 1.6356 1.64539 1.63978 1.64539 1.6356 1.68026 1.66928 1.66597 1.65854 1.65669 1.66928 1.65244 1.66597 1.65669 1.66928 1.65669 1.66597 1.63926 1.64539 1.64793 1.65244 1.65669 1.64539 1.65854 1.64793 1.65669 1.64539 1.65669 1.64793 1.6534 1.66284 1.64353 1.67035 1.6532 1.66284 1.6362 1.64353 1.6532 1.66284 1.6532 1.64353 1.68026 1.66597 1.67612 1.65244 1.66067 1.66597 1.67035 1.67612 1.66067 1.66597 1.66067 1.67612 1.62817 1.63102 1.63978 1.6362 1.64564 1.63102 1.65244 1.63978 1.64564 1.63102 1.64564 1.63978 1.67035 1.66067 1.6532 1.65244 1.64564 1.66067 1.6362 1.6532 1.64564 1.66067 1.64564 1.6532 1.56291 1.58395 1.56769 1.6021 1.58861 1.58395 1.57355 1.56769 1.58861 1.58395 1.58861 1.56769 1.62817 1.61995 1.61693 1.61074 1.60617 1.61995 1.6021 1.61693 1.60617 1.61995 1.60617 1.61693 1.58942 1.58085 1.60076 1.57355 1.59408 1.58085 1.61074 1.60076 1.59408 1.58085 1.59408 1.60076 1.6021 1.60617 1.58861 1.61074 1.59408 1.60617 1.57355 1.58861 1.59408 1.60617 1.59408 1.58861 1.63614 1.63361 1.63929 1.63185 1.63626 1.63361 1.63926 1.63929 1.63626 1.63361 1.63626 1.63929 1.63087 1.63125 1.631 1.63057 1.63343 1.63125 1.63185 1.631 1.63343 1.63125 1.63343 1.631 1.62817 1.6356 1.6296 1.63926 1.63499 1.6356 1.63057 1.6296 1.63499 1.6356 1.63499 1.6296 1.63185 1.63343 1.63626 1.63057 1.63499 1.63343 1.63926 1.63626 1.63499 1.63343 1.63499 1.63626 1.63474 1.62242 1.63373 1.61041 1.62521 1.62242 1.63247 1.63373 1.62521 1.62242 1.62521 1.63373 1.58942 1.60826 1.59934 1.62168 1.61655 1.60826 1.61041 1.59934 1.61655 1.60826 1.61655 1.59934 1.63087 1.63144 1.62923 1.63247 1.62736 1.63144 1.62168 1.62923 1.62736 1.63144 1.62736 1.62923 1.61041 1.61655 1.62521 1.62168 1.62736 1.61655 1.63247 1.62521 1.62736 1.61655 1.62736 1.62521 1.62817 1.6296 1.61995 1.63057 1.62299 1.6296 1.61074 1.61995 1.62299 1.6296 1.62299 1.61995 1.63087 1.62923 1.63125 1.62168 1.6263 1.62923 1.63057 1.63125 1.6263 1.62923 1.6263 1.63125 1.58942 1.60076 1.60826 1.61074 1.61607 1.60076 1.62168 1.60826 1.61607 1.60076 1.61607 1.60826 1.63057 1.6263 1.62299 1.62168 1.61607 1.6263 1.61074 1.62299 1.61607 1.6263 1.61607 1.62299 1.33329 1.34441 1.31776 1.36362 1.33287 1.34441 1.30358 1.31776 1.33287 1.34441 1.33287 1.31776 1.43213 1.39554 1.39494 1.3578 1.35967 1.39554 1.36362 1.39494 1.35967 1.39554 1.35967 1.39494 1.28337 1.29159 1.32037 1.30358 1.32442 1.29159 1.3578 1.32037 1.32442 1.29159 1.32442 1.32037 1.36362 1.35967 1.33287 1.3578 1.32442 1.35967 1.30358 1.33287 1.32442 1.35967 1.32442 1.33287 1.56291 1.53841 1.53437 1.51097 1.50639 1.53841 1.50299 1.53437 1.50639 1.53841 1.50639 1.53437 1.44787 1.44163 1.48115 1.43716 1.47513 1.44163 1.51097 1.48115 1.47513 1.44163 1.47513 1.48115 1.43213 1.46866 1.43411 1.50299 1.47138 1.46866 1.43716 1.43411 1.47138 1.46866 1.47138 1.43411 1.51097 1.47513 1.50639 1.43716 1.47138 1.47513 1.50299 1.50639 1.47138 1.47513 1.47138 1.50639 1.28103 1.27876 1.32767 1.27791 1.3233 1.27876 1.37123 1.32767 1.3233 1.27876 1.3233 1.32767 1.28337 1.31916 1.27916 1.36154 1.32047 1.31916 1.27791 1.27916 1.32047 1.31916 1.32047 1.27916 1.44787 1.41137 1.40507 1.37123 1.3656 1.41137 1.36154 1.40507 1.3656 1.41137 1.3656 1.40507 1.27791 1.32047 1.3233 1.36154 1.3656 1.32047 1.37123 1.3233 1.3656 1.32047 1.3656 1.3233 1.43213 1.43411 1.39554 1.43716 1.39743 1.43411 1.3578 1.39554 1.39743 1.43411 1.39743 1.39554 1.44787 1.40507 1.44163 1.36154 1.40054 1.40507 1.43716 1.44163 1.40054 1.40507 1.40054 1.44163 1.28337 1.32037 1.31916 1.3578 1.35902 1.32037 1.36154 1.31916 1.35902 1.32037 1.35902 1.31916 1.43716 1.40054 1.39743 1.36154 1.35902 1.40054 1.3578 1.39743 1.35902 1.40054 1.35902 1.39743 1.28103 1.32767 1.30692 1.37123 1.35344 1.32767 1.33402 1.30692 1.35344 1.32767 1.35344 1.30692 1.44787 1.43475 1.41137 1.42146 1.39607 1.43475 1.37123 1.41137 1.39607 1.43475 1.39607 1.41137 1.39373 1.36301 1.40801 1.33402 1.38006 1.36301 1.42146 1.40801 1.38006 1.36301 1.38006 1.40801 1.37123 1.39607 1.35344 1.42146 1.38006 1.39607 1.33402 1.35344 1.38006 1.39607 1.38006 1.35344 1.56291 1.55312 1.53841 1.54489 1.52823 1.55312 1.51097 1.53841 1.52823 1.55312 1.52823 1.53841 1.53303 1.51228 1.53805 1.49089 1.51966 1.51228 1.54489 1.53805 1.51966 1.51228 1.51966 1.53805 1.44787 1.48115 1.46938 1.51097 1.50051 1.48115 1.49089 1.46938 1.50051 1.48115 1.50051 1.46938 1.54489 1.51966 1.52823 1.49089 1.50051 1.51966 1.51097 1.52823 1.50051 1.51966 1.50051 1.52823 1.53271 1.49657 1.52948 1.46062 1.49846 1.49657 1.52854 1.52948 1.49846 1.49657 1.49846 1.52948 1.39373 1.43715 1.42635 1.47446 1.46733 1.43715 1.46062 1.42635 1.46733 1.43715 1.46733 1.42635 1.53303 1.52975 1.50627 1.52854 1.50169 1.52975 1.47446 1.50627 1.50169 1.52975 1.50169 1.50627 1.46062 1.46733 1.49846 1.47446 1.50169 1.46733 1.52854 1.49846 1.50169 1.46733 1.50169 1.49846 1.44787 1.46938 1.43475 1.49089 1.45839 1.46938 1.42146 1.43475 1.45839 1.46938 1.45839 1.43475 1.53303 1.50627 1.51228 1.47446 1.48225 1.50627 1.49089 1.51228 1.48225 1.50627 1.48225 1.51228 1.39373 1.40801 1.43715 1.42146 1.44769 1.40801 1.47446 1.43715 1.44769 1.40801 1.44769 1.43715 1.49089 1.48225 1.45839 1.47446 1.44769 1.48225 1.42146 1.45839 1.44769 1.48225 1.44769 1.45839 1.53271 1.52948 1.55686 1.52854 1.55077 1.52948 1.57765 1.55686 1.55077 1.52948 1.55077 1.55686 1.53303 1.54744 1.52975 1.56473 1.54773 1.54744 1.52854 1.52975 1.54773 1.54744 1.54773 1.52975 1.60847 1.59474 1.58501 1.57765 1.56933 1.59474 1.56473 1.58501 1.56933 1.59474 1.56933 1.58501 1.52854 1.54773 1.55077 1.56473 1.56933 1.54773 1.57765 1.55077 1.56933 1.54773 1.56933 1.55077 1.56291 1.56769 1.55312 1.57355 1.55959 1.56769 1.54489 1.55312 1.55959 1.56769 1.55959 1.55312 1.58942 1.57742 1.58085 1.56442 1.56776 1.57742 1.57355 1.58085 1.56776 1.57742 1.56776 1.58085 1.53303 1.53805 1.54944 1.54489 1.55373 1.53805 1.56442 1.54944 1.55373 1.53805 1.55373 1.54944 1.57355 1.56776 1.55959 1.56442 1.55373 1.56776 1.54489 1.55959 1.55373 1.56776 1.55373 1.55959 1.63474 1.63126 1.62242 1.62658 1.61586 1.63126 1.61041 1.62242 1.61586 1.63126 1.61586 1.62242 1.60847 1.5978 1.61881 1.59166 1.60824 1.5978 1.62658 1.61881 1.60824 1.5978 1.60824 1.61881 1.58942 1.59934 1.58874 1.61041 1.60159 1.59934 1.59166 1.58874 1.60159 1.59934 1.60159 1.58874 1.62658 1.60824 1.61586 1.59166 1.60159 1.60824 1.61041 1.61586 1.60159 1.60824 1.60159 1.61586 1.53303 1.54944 1.54744 1.56442 1.56317 1.54944 1.56473 1.54744 1.56317 1.54944 1.56317 1.54744 1.58942 1.58874 1.57742 1.59166 1.57706 1.58874 1.56442 1.57742 1.57706 1.58874 1.57706 1.57742 1.60847 1.58501 1.5978 1.56473 1.57923 1.58501 1.59166 1.5978 1.57923 1.58501 1.57923 1.5978 1.56442 1.57706 1.56317 1.59166 1.57923 1.57706 1.56473 1.56317 1.57923 1.57706 1.57923 1.56317 </DataArray>