<?xml version="1.0" encoding="UTF-8"?>
<VTKFile type="UnstructuredGrid" version="0.1" byte_order="LittleEndian" compressor="vtkZLibDataCompressor">
    <UnstructuredGrid>
        <Piece NumberOfPoints="1920" NumberOfCells="640">
            <Points>
                <DataArray type="Float64" Name="Array" NumberOfComponents="3" format="ascii" RangeMin="0" RangeMax="16">11.9336 16 0 11.7836 15.6533 0 12.1113 15.7351 0 11.6336 15.3065 0 11.9613 15.3883 0 11.7836 15.6533 0 12.2891 15.4701 0 12.1113 15.7351 0 11.9613 15.3883 0 11.7836 15.6533 0 11.9613 15.3883 0 12.1113 15.7351 0 11.3336 14.6131 0 11.6613 14.6948 0 11.4836 14.9598 0 11.9891 14.7766 0 11.8113 15.0416 0 11.6613 14.6948 0 11.6336 15.3065 0 11.4836 14.9598 0 11.8113 15.0416 0 11.6613 14.6948 0 11.8113 15.0416 0 11.4836 14.9598 0 12.6447 14.9402 0 12.4669 15.2052 0 12.3169 14.8584 0 12.2891 15.4701 0 12.1391 15.1234 0 12.4669 15.2052 0 11.9891 14.7766 0 12.3169 14.8584 0 12.1391 15.1234 0 12.4669 15.2052 0 12.1391 15.1234 0 12.3169 14.8584 0 11.6336 15.3065 0 11.8113 15.0416 0 11.9613 15.3883 0 11.9891 14.7766 0 12.1391 15.1234 0 11.8113 15.0416 0 12.2891 15.4701 0 11.9613 15.3883 0 12.1391 15.1234 0 11.8113 15.0416 0 12.1391 15.1234 0 11.9613 15.3883 0 10.7336 13.2261 0 11.0613 13.3079 0 10.8836 13.5728 0 11.3891 13.3897 0 11.2113 13.6546 0 11.0613 13.3079 0 11.0336 13.9196 0 10.8836 13.5728 0 11.2113 13.6546 0 11.0613 13.3079 0 11.2113 13.6546 0 10.8836 13.5728 0 12.0447 13.5533 0 11.8669 13.8182 0 11.7169 13.4715 0 11.6891 14.0832 0 11.5391 13.7364 0 11.8669 13.8182 0 11.3891 13.3897 0 11.7169 13.4715 0 11.5391 13.7364 0 11.8669 13.8182 0 11.5391 13.7364 0 11.7169 13.4715 0 11.3336 14.6131 0 11.1836 14.2663 0 11.5113 14.3481 0 11.0336 13.9196 0 11.3613 14.0014 0 11.1836 14.2663 0 11.6891 14.0832 0 11.5113 14.3481 0 11.3613 14.0014 0 11.1836 14.2663 0 11.3613 14.0014 0 11.5113 14.3481 0 11.3891 13.3897 0 11.5391 13.7364 0 11.2113 13.6546 0 11.6891 14.0832 0 11.3613 14.0014 0 11.5391 13.7364 0 11.0336 13.9196 0 11.2113 13.6546 0 11.3613 14.0014 0 11.5391 13.7364 0 11.3613 14.0014 0 11.2113 13.6546 0 13.3558 13.8805 0 13.178 14.1454 0 13.028 13.7987 0 13.0003 14.4103 0 12.8503 14.0636 0 13.178 14.1454 0 12.7003 13.7169 0 13.028 13.7987 0 12.8503 14.0636 0 13.178 14.1454 0 12.8503 14.0636 0 13.028 13.7987 0 12.6447 14.9402 0 12.4947 14.5935 0 12.8225 14.6753 0 12.3447 14.2468 0 12.6725 14.3285 0 12.4947 14.5935 0 13.0003 14.4103 0 12.8225 14.6753 0 12.6725 14.3285 0 12.4947 14.5935 0 12.6725 14.3285 0 12.8225 14.6753 0 12.0447 13.5533 0 12.3725 13.6351 0 12.1947 13.9 0 12.7003 13.7169 0 12.5225 13.9818 0 12.3725 13.6351 0 12.3447 14.2468 0 12.1947 13.9 0 12.5225 13.9818 0 12.3725 13.6351 0 12.5225 13.9818 0 12.1947 13.9 0 13.0003 14.4103 0 12.6725 14.3285 0 12.8503 14.0636 0 12.3447 14.2468 0 12.5225 13.9818 0 12.6725 14.3285 0 12.7003 13.7169 0 12.8503 14.0636 0 12.5225 13.9818 0 12.6725 14.3285 0 12.5225 13.9818 0 12.8503 14.0636 0 11.3336 14.6131 0 11.5113 14.3481 0 11.6613 14.6948 0 11.6891 14.0832 0 11.8391 14.4299 0 11.5113 14.3481 0 11.9891 14.7766 0 11.6613 14.6948 0 11.8391 14.4299 0 11.5113 14.3481 0 11.8391 14.4299 0 11.6613 14.6948 0 12.0447 13.5533 0 12.1947 13.9 0 11.8669 13.8182 0 12.3447 14.2468 0 12.0169 14.165 0 12.1947 13.9 0 11.6891 14.0832 0 11.8669 13.8182 0 12.0169 14.165 0 12.1947 13.9 0 12.0169 14.165 0 11.8669 13.8182 0 12.6447 14.9402 0 12.3169 14.8584 0 12.4947 14.5935 0 11.9891 14.7766 0 12.1669 14.5117 0 12.3169 14.8584 0 12.3447 14.2468 0 12.4947 14.5935 0 12.1669 14.5117 0 12.3169 14.8584 0 12.1669 14.5117 0 12.4947 14.5935 0 11.6891 14.0832 0 12.0169 14.165 0 11.8391 14.4299 0 12.3447 14.2468 0 12.1669 14.5117 0 12.0169 14.165 0 11.9891 14.7766 0 11.8391 14.4299 0 12.1669 14.5117 0 12.0169 14.165 0 12.1669 14.5117 0 11.8391 14.4299 0 13.3558 13.8805 0 13.028 13.7987 0 13.2448 13.6123 0 12.7003 13.7169 0 12.917 13.5305 0 13.028 13.7987 0 13.1338 13.3442 0 13.2448 13.6123 0 12.917 13.5305 0 13.028 13.7987 0 12.917 13.5305 0 13.2448 13.6123 0 12.0447 13.5533 0 12.2615 13.3669 0 12.3725 13.6351 0 12.4783 13.1806 0 12.5893 13.4487 0 12.2615 13.3669 0 12.7003 13.7169 0 12.3725 13.6351 0 12.5893 13.4487 0 12.2615 13.3669 0 12.5893 13.4487 0 12.3725 13.6351 0 12.9118 12.8079 0 13.0228 13.0761 0 12.6951 12.9943 0 13.1338 13.3442 0 12.8061 13.2624 0 13.0228 13.0761 0 12.4783 13.1806 0 12.6951 12.9943 0 12.8061 13.2624 0 13.0228 13.0761 0 12.8061 13.2624 0 12.6951 12.9943 0 12.7003 13.7169 0 12.5893 13.4487 0 12.917 13.5305 0 12.4783 13.1806 0 12.8061 13.2624 0 12.5893 13.4487 0 13.1338 13.3442 0 12.917 13.5305 0 12.8061 13.2624 0 12.5893 13.4487 0 12.8061 13.2624 0 12.917 13.5305 0 10.7336 13.2261 0 10.9504 13.0398 0 11.0613 13.3079 0 11.1671 12.8534 0 11.2781 13.1216 0 10.9504 13.0398 0 11.3891 13.3897 0 11.0613 13.3079 0 11.2781 13.1216 0 10.9504 13.0398 0 11.2781 13.1216 0 11.0613 13.3079 0 11.6007 12.4808 0 11.7117 12.7489 0 11.3839 12.6671 0 11.8227 13.017 0 11.4949 12.9352 0 11.7117 12.7489 0 11.1671 12.8534 0 11.3839 12.6671 0 11.4949 12.9352 0 11.7117 12.7489 0 11.4949 12.9352 0 11.3839 12.6671 0 12.0447 13.5533 0 11.7169 13.4715 0 11.9337 13.2852 0 11.3891 13.3897 0 11.6059 13.2034 0 11.7169 13.4715 0 11.8227 13.017 0 11.9337 13.2852 0 11.6059 13.2034 0 11.7169 13.4715 0 11.6059 13.2034 0 11.9337 13.2852 0 11.1671 12.8534 0 11.4949 12.9352 0 11.2781 13.1216 0 11.8227 13.017 0 11.6059 13.2034 0 11.4949 12.9352 0 11.3891 13.3897 0 11.2781 13.1216 0 11.6059 13.2034 0 11.4949 12.9352 0 11.6059 13.2034 0 11.2781 13.1216 0 12.4679 11.7354 0 12.5789 12.0035 0 12.2511 11.9217 0 12.6899 12.2717 0 12.3621 12.1899 0 12.5789 12.0035 0 12.0343 12.1081 0 12.2511 11.9217 0 12.3621 12.1899 0 12.5789 12.0035 0 12.3621 12.1899 0 12.2511 11.9217 0 12.9118 12.8079 0 12.5841 12.7261 0 12.8009 12.5398 0 12.2563 12.6443 0 12.4731 12.458 0 12.5841 12.7261 0 12.6899 12.2717 0 12.8009 12.5398 0 12.4731 12.458 0 12.5841 12.7261 0 12.4731 12.458 0 12.8009 12.5398 0 11.6007 12.4808 0 11.8175 12.2944 0 11.9285 12.5625 0 12.0343 12.1081 0 12.1453 12.3762 0 11.8175 12.2944 0 12.2563 12.6443 0 11.9285 12.5625 0 12.1453 12.3762 0 11.8175 12.2944 0 12.1453 12.3762 0 11.9285 12.5625 0 12.6899 12.2717 0 12.4731 12.458 0 12.3621 12.1899 0 12.2563 12.6443 0 12.1453 12.3762 0 12.4731 12.458 0 12.0343 12.1081 0 12.3621 12.1899 0 12.1453 12.3762 0 12.4731 12.458 0 12.1453 12.3762 0 12.3621 12.1899 0 12.0447 13.5533 0 11.9337 13.2852 0 12.2615 13.3669 0 11.8227 13.017 0 12.1505 13.0988 0 11.9337 13.2852 0 12.4783 13.1806 0 12.2615 13.3669 0 12.1505 13.0988 0 11.9337 13.2852 0 12.1505 13.0988 0 12.2615 13.3669 0 11.6007 12.4808 0 11.9285 12.5625 0 11.7117 12.7489 0 12.2563 12.6443 0 12.0395 12.8307 0 11.9285 12.5625 0 11.8227 13.017 0 11.7117 12.7489 0 12.0395 12.8307 0 11.9285 12.5625 0 12.0395 12.8307 0 11.7117 12.7489 0 12.9118 12.8079 0 12.6951 12.9943 0 12.5841 12.7261 0 12.4783 13.1806 0 12.3673 12.9125 0 12.6951 12.9943 0 12.2563 12.6443 0 12.5841 12.7261 0 12.3673 12.9125 0 12.6951 12.9943 0 12.3673 12.9125 0 12.5841 12.7261 0 11.8227 13.017 0 12.0395 12.8307 0 12.1505 13.0988 0 12.2563 12.6443 0 12.3673 12.9125 0 12.0395 12.8307 0 12.4783 13.1806 0 12.1505 13.0988 0 12.3673 12.9125 0 12.0395 12.8307 0 12.3673 12.9125 0 12.1505 13.0988 0 14.216 12.233 0 14.1085 12.4389 0 13.9975 12.1708 0 14.001 12.6448 0 13.89 12.3767 0 14.1085 12.4389 0 13.779 12.1086 0 13.9975 12.1708 0 13.89 12.3767 0 14.1085 12.4389 0 13.89 12.3767 0 13.9975 12.1708 0 13.7859 13.0567 0 13.6749 12.7886 0 13.8934 12.8508 0 13.5639 12.5204 0 13.7824 12.5826 0 13.6749 12.7886 0 14.001 12.6448 0 13.8934 12.8508 0 13.7824 12.5826 0 13.6749 12.7886 0 13.7824 12.5826 0 13.8934 12.8508 0 13.3419 11.9842 0 13.5605 12.0464 0 13.4529 12.2523 0 13.779 12.1086 0 13.6715 12.3145 0 13.5605 12.0464 0 13.5639 12.5204 0 13.4529 12.2523 0 13.6715 12.3145 0 13.5605 12.0464 0 13.6715 12.3145 0 13.4529 12.2523 0 14.001 12.6448 0 13.7824 12.5826 0 13.89 12.3767 0 13.5639 12.5204 0 13.6715 12.3145 0 13.7824 12.5826 0 13.779 12.1086 0 13.89 12.3767 0 13.6715 12.3145 0 13.7824 12.5826 0 13.6715 12.3145 0 13.89 12.3767 0 13.3558 13.8805 0 13.2448 13.6123 0 13.4633 13.6745 0 13.1338 13.3442 0 13.3523 13.4064 0 13.2448 13.6123 0 13.5709 13.4686 0 13.4633 13.6745 0 13.3523 13.4064 0 13.2448 13.6123 0 13.3523 13.4064 0 13.4633 13.6745 0 12.9118 12.8079 0 13.1304 12.8701 0 13.0228 13.0761 0 13.3489 12.9323 0 13.2414 13.1383 0 13.1304 12.8701 0 13.1338 13.3442 0 13.0228 13.0761 0 13.2414 13.1383 0 13.1304 12.8701 0 13.2414 13.1383 0 13.0228 13.0761 0 13.7859 13.0567 0 13.6784 13.2626 0 13.5674 12.9945 0 13.5709 13.4686 0 13.4599 13.2004 0 13.6784 13.2626 0 13.3489 12.9323 0 13.5674 12.9945 0 13.4599 13.2004 0 13.6784 13.2626 0 13.4599 13.2004 0 13.5674 12.9945 0 13.1338 13.3442 0 13.2414 13.1383 0 13.3523 13.4064 0 13.3489 12.9323 0 13.4599 13.2004 0 13.2414 13.1383 0 13.5709 13.4686 0 13.3523 13.4064 0 13.4599 13.2004 0 13.2414 13.1383 0 13.4599 13.2004 0 13.3523 13.4064 0 12.4679 11.7354 0 12.6864 11.7976 0 12.5789 12.0035 0 12.9049 11.8598 0 12.7974 12.0657 0 12.6864 11.7976 0 12.6899 12.2717 0 12.5789 12.0035 0 12.7974 12.0657 0 12.6864 11.7976 0 12.7974 12.0657 0 12.5789 12.0035 0 13.3419 11.9842 0 13.2344 12.1901 0 13.1234 11.922 0 13.1269 12.396 0 13.0159 12.1279 0 13.2344 12.1901 0 12.9049 11.8598 0 13.1234 11.922 0 13.0159 12.1279 0 13.2344 12.1901 0 13.0159 12.1279 0 13.1234 11.922 0 12.9118 12.8079 0 12.8009 12.5398 0 13.0194 12.602 0 12.6899 12.2717 0 12.9084 12.3339 0 12.8009 12.5398 0 13.1269 12.396 0 13.0194 12.602 0 12.9084 12.3339 0 12.8009 12.5398 0 12.9084 12.3339 0 13.0194 12.602 0 12.9049 11.8598 0 13.0159 12.1279 0 12.7974 12.0657 0 13.1269 12.396 0 12.9084 12.3339 0 13.0159 12.1279 0 12.6899 12.2717 0 12.7974 12.0657 0 12.9084 12.3339 0 13.0159 12.1279 0 12.9084 12.3339 0 12.7974 12.0657 0 13.7859 13.0567 0 13.5674 12.9945 0 13.6749 12.7886 0 13.3489 12.9323 0 13.4564 12.7264 0 13.5674 12.9945 0 13.5639 12.5204 0 13.6749 12.7886 0 13.4564 12.7264 0 13.5674 12.9945 0 13.4564 12.7264 0 13.6749 12.78
[...]
            <PointData>
                <DataArray Name="p" type="Float64" format="ascii">1.08288 1.09593 1.06555 1.11074 1.08009 1.09593 1.04864 1.06555 1.08009 1.09593 1.08009 1.06555 1.15085 1.1183 1.12863 1.085 1.09718 1.1183 1.11074 1.12863 1.09718 1.1183 1.09718 1.12863 1.01662 1.03229 1.0511 1.04864 1.0651 1.03229 1.085 1.0511 1.0651 1.03229 1.0651 1.0511 1.11074 1.09718 1.08009 1.085 1.0651 1.09718 1.04864 1.08009 1.0651 1.09718 1.0651 1.08009 1.28103 1.24667 1.2445 1.21015 1.20948 1.24667 1.20967 1.2445 1.20948 1.24667 1.20948 1.2445 1.13086 1.13475 1.17149 1.13904 1.17295 1.13475 1.21015 1.17149 1.17295 1.13475 1.17295 1.17149 1.15085 1.17812 1.14424 1.20967 1.175 1.17812 1.13904 1.14424 1.175 1.17812 1.175 1.14424 1.21015 1.17295 1.20948 1.13904 1.175 1.17295 1.20967 1.20948 1.175 1.17295 1.175 1.20948 0.955135 0.971436 1.00017 0.986674 1.01321 0.971436 1.0448 1.00017 1.01321 0.971436 1.01321 1.00017 1.01662 1.03806 1.00154 1.06416 1.02562 1.03806 0.986674 1.00154 1.02562 1.03806 1.02562 1.00154 1.13086 1.08851 1.09522 1.0448 1.0546 1.08851 1.06416 1.09522 1.0546 1.08851 1.0546 1.09522 0.986674 1.02562 1.01321 1.06416 1.0546 1.02562 1.0448 1.01321 1.0546 1.02562 1.0546 1.01321 1.15085 1.14424 1.1183 1.13904 1.10956 1.14424 1.085 1.1183 1.10956 1.14424 1.10956 1.1183 1.13086 1.09522 1.13475 1.06416 1.10205 1.09522 1.13904 1.13475 1.10205 1.09522 1.10205 1.13475 1.01662 1.0511 1.03806 1.085 1.0741 1.0511 1.06416 1.03806 1.0741 1.0511 1.0741 1.03806 1.13904 1.10205 1.10956 1.06416 1.0741 1.10205 1.085 1.10956 1.0741 1.10205 1.0741 1.10956 0.955135 1.00017 0.977674 1.0448 1.02533 1.00017 1.00322 0.977674 1.02533 1.00017 1.02533 0.977674 1.13086 1.11729 1.08851 1.10195 1.07207 1.11729 1.0448 1.08851 1.07207 1.11729 1.07207 1.08851 1.06443 1.03214 1.08454 1.00322 1.05339 1.03214 1.10195 1.08454 1.05339 1.03214 1.05339 1.08454 1.0448 1.07207 1.02533 1.10195 1.05339 1.07207 1.00322 1.02533 1.05339 1.07207 1.05339 1.02533 1.28103 1.27602 1.24667 1.27095 1.2402 1.27602 1.21015 1.24667 1.2402 1.27602 1.2402 1.24667 1.26011 1.22554 1.26562 1.19212 1.2331 1.22554 1.27095 1.26562 1.2331 1.22554 1.2331 1.26562 1.13086 1.17149 1.16061 1.21015 1.20156 1.17149 1.19212 1.16061 1.20156 1.17149 1.20156 1.16061 1.27095 1.2331 1.2402 1.19212 1.20156 1.2331 1.21015 1.2402 1.20156 1.2331 1.20156 1.2402 1.2313 1.184 1.24005 1.14005 1.19679 1.184 1.24754 1.24005 1.19679 1.184 1.19679 1.24005 1.06443 1.1188 1.10043 1.16976 1.15609 1.1188 1.14005 1.10043 1.15609 1.1188 1.15609 1.10043 1.26011 1.25411 1.21711 1.24754 1.20767 1.25411 1.16976 1.21711 1.20767 1.25411 1.20767 1.21711 1.14005 1.15609 1.19679 1.16976 1.20767 1.15609 1.24754 1.19679 1.20767 1.15609 1.20767 1.19679 1.13086 1.16061 1.11729 1.19212 1.14836 1.16061 1.10195 1.11729 1.14836 1.16061 1.14836 1.11729 1.26011 1.21711 1.22554 1.16976 1.18163 1.21711 1.19212 1.22554 1.18163 1.21711 1.18163 1.22554 1.06443 1.08454 1.1188 1.10195 1.13461 1.08454 1.16976 1.1188 1.13461 1.08454 1.13461 1.1188 1.19212 1.18163 1.14836 1.16976 1.13461 1.18163 1.10195 1.14836 1.13461 1.18163 1.13461 1.14836 0.832734 0.856319 0.885892 0.876553 0.90508 0.856319 0.939562 0.885892 0.90508 0.856319 0.90508 0.885892 0.909439 0.935979 0.894103 0.967004 0.921652 0.935979 0.876553 0.894103 0.921652 0.935979 0.921652 0.894103 1.04525 0.992917 1.00313 0.939562 0.954251 0.992917 0.967004 1.00313 0.954251 0.992917 0.954251 1.00313 0.876553 0.921652 0.90508 0.967004 0.954251 0.921652 0.939562 0.90508 0.954251 0.921652 0.954251 0.90508 0.955135 0.977674 0.945431 1.00322 0.968879 0.977674 0.934817 0.945431 0.968879 0.977674 0.968879 0.945431 1.06443 1.02616 1.03214 0.98751 0.995736 1.02616 1.00322 1.03214 0.995736 1.02616 0.995736 1.03214 0.909439 0.92288 0.9484 0.934817 0.959354 0.92288 0.98751 0.9484 0.959354 0.92288 0.959354 0.9484 1.00322 0.995736 0.968879 0.98751 0.959354 0.995736 0.934817 0.968879 0.959354 0.995736 0.959354 0.968879 1.2313 1.18923 1.184 1.14398 1.14144 1.18923 1.14005 1.184 1.14144 1.18923 1.14144 1.184 1.04525 1.05095 1.09575 1.05611 1.09744 1.05095 1.14398 1.09575 1.09744 1.05095 1.09744 1.09575 1.06443 1.10043 1.06036 1.14005 1.09882 1.10043 1.05611 1.06036 1.09882 1.10043 1.09882 1.06036 1.14398 1.09744 1.14144 1.05611 1.09882 1.09744 1.14005 1.14144 1.09882 1.09744 1.09882 1.14144 0.909439 0.9484 0.935979 0.98751 0.977933 0.9484 0.967004 0.935979 0.977933 0.9484 0.977933 0.935979 1.06443 1.06036 1.02616 1.05611 1.01967 1.06036 0.98751 1.02616 1.01967 1.06036 1.01967 1.02616 1.04525 1.00313 1.05095 0.967004 1.01197 1.00313 1.05611 1.05095 1.01197 1.00313 1.01197 1.05095 0.98751 1.01967 0.977933 1.05611 1.01197 1.01967 0.967004 0.977933 1.01197 1.01967 1.01197 0.977933 1.2313 1.24005 1.28289 1.24754 1.28655 1.24005 1.33152 1.28289 1.28655 1.24005 1.28655 1.28289 1.26011 1.29319 1.25411 1.33003 1.2899 1.29319 1.24754 1.25411 1.2899 1.29319 1.2899 1.25411 1.41685 1.37631 1.37114 1.33152 1.33042 1.37631 1.33003 1.37114 1.33042 1.37631 1.33042 1.37114 1.24754 1.2899 1.28655 1.33003 1.33042 1.2899 1.33152 1.28655 1.33042 1.2899 1.33042 1.28655 1.28103 1.30692 1.27602 1.33402 1.30296 1.30692 1.27095 1.27602 1.30296 1.30692 1.30296 1.27602 1.39373 1.36319 1.36301 1.33095 1.33205 1.36319 1.33402 1.36301 1.33205 1.36319 1.33205 1.36301 1.26011 1.26562 1.29634 1.27095 1.29977 1.26562 1.33095 1.29634 1.29977 1.26562 1.29977 1.29634 1.33402 1.33205 1.30296 1.33095 1.29977 1.33205 1.27095 1.30296 1.29977 1.33205 1.29977 1.30296 1.53271 1.5104 1.49657 1.48389 1.47037 1.5104 1.46062 1.49657 1.47037 1.5104 1.47037 1.49657 1.41685 1.40808 1.45262 1.40166 1.44146 1.40808 1.48389 1.45262 1.44146 1.40808 1.44146 1.45262 1.39373 1.42635 1.39665 1.46062 1.43251 1.42635 1.40166 1.39665 1.43251 1.42635 1.43251 1.39665 1.48389 1.44146 1.47037 1.40166 1.43251 1.44146 1.46062 1.47037 1.43251 1.44146 1.43251 1.47037 1.26011 1.29634 1.29319 1.33095 1.33014 1.29634 1.33003 1.29319 1.33014 1.29634 1.33014 1.29319 1.39373 1.39665 1.36319 1.40166 1.36489 1.39665 1.33095 1.36319 1.36489 1.39665 1.36489 1.36319 1.41685 1.37114 1.40808 1.33003 1.3673 1.37114 1.40166 1.40808 1.3673 1.37114 1.3673 1.40808 1.33095 1.36489 1.33014 1.40166 1.3673 1.36489 1.33003 1.33014 1.3673 1.36489 1.3673 1.33014 1.53271 1.55686 1.56126 1.57765 1.58425 1.55686 1.59212 1.56126 1.58425 1.55686 1.58425 1.56126 1.60847 1.61766 1.59474 1.62904 1.60301 1.61766 1.57765 1.59474 1.60301 1.61766 1.60301 1.59474 1.66131 1.62573 1.64356 1.59212 1.61298 1.62573 1.62904 1.64356 1.61298 1.62573 1.61298 1.64356 1.57765 1.60301 1.58425 1.62904 1.61298 1.60301 1.59212 1.58425 1.61298 1.60301 1.61298 1.58425 1.63474 1.64259 1.63126 1.65309 1.64068 1.64259 1.62658 1.63126 1.64068 1.64259 1.64068 1.63126 1.68392 1.66688 1.66688 1.64808 1.65202 1.66688 1.65309 1.66688 1.65202 1.66688 1.65202 1.66688 1.60847 1.61881 1.62862 1.62658 1.63599 1.61881 1.64808 1.62862 1.63599 1.61881 1.63599 1.62862 1.65309 1.65202 1.64068 1.64808 1.63599 1.65202 1.62658 1.64068 1.63599 1.65202 1.63599 1.64068 1.80307 1.77115 1.76372 1.73549 1.73655 1.77115 1.73151 1.76372 1.73655 1.77115 1.73655 1.76372 1.66131 1.67495 1.69832 1.68268 1.70643 1.67495 1.73549 1.69832 1.70643 1.67495 1.70643 1.69832 1.68392 1.70529 1.68537 1.73151 1.70832 1.70529 1.68268 1.68537 1.70832 1.70529 1.70832 1.68537 1.73549 1.70643 1.73655 1.68268 1.70832 1.70643 1.73151 1.73655 1.70832 1.70643 1.70832 1.73655 1.60847 1.62862 1.61766 1.64808 1.64054 1.62862 1.62904 1.61766 1.64054 1.62862 1.64054 1.61766 1.68392 1.68537 1.66688 1.68268 1.66351 1.68537 1.64808 1.66688 1.66351 1.68537 1.66351 1.66688 1.66131 1.64356 1.67495 1.62904 1.65597 1.64356 1.68268 1.67495 1.65597 1.64356 1.65597 1.67495 1.64808 1.66351 1.64054 1.68268 1.65597 1.66351 1.62904 1.64054 1.65597 1.66351 1.65597 1.64054 1.53271 1.56126 1.54032 1.59212 1.57271 1.56126 1.5501 1.54032 1.57271 1.56126 1.57271 1.54032 1.66131 1.6474 1.62573 1.62905 1.60857 1.6474 1.59212 1.62573 1.60857 1.6474 1.60857 1.62573 1.57713 1.56226 1.60555 1.5501 1.58753 1.56226 1.62905 1.60555 1.58753 1.56226 1.58753 1.60555 1.59212 1.60857 1.57271 1.62905 1.58753 1.60857 1.5501 1.57271 1.58753 1.60857 1.58753 1.57271 1.80307 1.81596 1.77115 1.82393 1.77512 1.81596 1.73549 1.77115 1.77512 1.81596 1.77512 1.77115 1.81687 1.765 1.82479 1.72308 1.77362 1.765 1.82393 1.82479 1.77362 1.765 1.77362 1.82479 1.66131 1.69832 1.68889 1.73549 1.73196 1.69832 1.72308 1.68889 1.73196 1.69832 1.73196 1.68889 1.82393 1.77362 1.77512 1.72308 1.73196 1.77362 1.73549 1.77512 1.73196 1.77362 1.73196 1.77512 1.66893 1.64075 1.72449 1.61613 1.68621 1.64075 1.76778 1.72449 1.68621 1.64075 1.68621 1.72449 1.57713 1.62762 1.59499 1.68476 1.65423 1.62762 1.61613 1.59499 1.65423 1.62762 1.65423 1.59499 1.81687 1.79831 1.74819 1.76778 1.72211 1.79831 1.68476 1.74819 1.72211 1.79831 1.72211 1.74819 1.61613 1.65423 1.68621 1.68476 1.72211 1.65423 1.76778 1.68621 1.72211 1.65423 1.72211 1.68621 1.66131 1.68889 1.6474 1.72308 1.67447 1.68889 1.62905 1.6474 1.67447 1.68889 1.67447 1.6474 1.81687 1.74819 1.765 1.68476 1.70752 1.74819 1.72308 1.765 1.70752 1.74819 1.70752 1.765 1.57713 1.60555 1.62762 1.62905 1.6541 1.60555 1.68476 1.62762 1.6541 1.60555 1.6541 1.62762 1.72308 1.70752 1.67447 1.68476 1.6541 1.70752 1.62905 1.67447 1.6541 1.70752 1.6541 1.67447 1.53271 1.54032 1.5104 1.5501 1.51645 1.54032 1.48389 1.5104 1.51645 1.54032 1.51645 1.5104 1.57713 1.53305 1.56226 1.49125 1.52382 1.53305 1.5501 1.56226 1.52382 1.53305 1.52382 1.56226 1.41685 1.45262 1.45268 1.48389 1.48714 1.45262 1.49125 1.45268 1.48714 1.45262 1.48714 1.45268 1.5501 1.52382 1.51645 1.49125 1.48714 1.52382 1.48389 1.51645 1.48714 1.52382 1.48714 1.51645 1.66893 1.58549 1.64075 1.51069 1.57066 1.58549 1.61613 1.64075 1.57066 1.58549 1.57066 1.64075 1.3892 1.4498 1.44567 1.50143 1.50662 1.4498 1.51069 1.44567 1.50662 1.4498 1.50662 1.44567 1.57713 1.59499 1.54397 1.61613 1.5566 1.59499 1.50143 1.54397 1.5566 1.59499 1.5566 1.54397 1.51069 1.50662 1.57066 1.50143 1.5566 1.50662 1.61613 1.57066 1.5566 1.50662 1.5566 1.57066 1.2313 1.28289 1.26271 1.33152 1.31698 1.28289 1.29866 1.26271 1.31698 1.28289 1.31698 1.26271 1.41685 1.41256 1.37631 1.40695 1.36722 1.41256 1.33152 1.37631 1.36722 1.41256 1.36722 1.37631 1.3892 1.34059 1.39959 1.29866 1.35547 1.34059 1.40695 1.39959 1.35547 1.34059 1.35547 1.39959 1.33152 1.36722 1.31698 1.40695 1.35547 1.36722 1.29866 1.31698 1.35547 1.36722 1.35547 1.31698 1.57713 1.54397 1.53305 1.50143 1.49613 1.54397 1.49125 1.53305 1.49613 1.54397 1.49613 1.53305 1.3892 1.39959 1.4498 1.40695 1.45169 1.39959 1.50143 1.4498 1.45169 1.39959 1.45169 1.4498 1.41685 1.45268 1.41256 1.49125 1.45233 1.45268 1.40695 1.41256 1.45233 1.45268 1.45233 1.41256 1.50143 1.45169 1.49613 1.40695 1.45233 1.45169 1.49125 1.49613 1.45233 1.45169 1.45233 1.49613 1.2313 1.26271 1.21981 1.29866 1.25304 1.26271 1.20613 1.21981 1.25304 1.26271 1.25304 1.21981 1.3892 1.33833 1.34059 1.28437 1.29225 1.33833 1.29866 1.34059 1.29225 1.33833 1.29225 1.34059 1.16884 1.18941 1.22737 1.20613 1.24182 1.18941 1.28437 1.22737 1.24182 1.18941 1.24182 1.22737 1.29866 1.29225 1.25304 1.28437 1.24182 1.29225 1.20613 1.25304 1.24182 1.29225 1.24182 1.25304 1.66893 1.61886 1.58549 1.55681 1.53146 1.61886 1.51069 1.58549 1.53146 1.61886 1.53146 1.58549 1.39848 1.39847 1.48268 1.39636 1.46952 1.39847 1.55681 1.48268 1.46952 1.39847 1.46952 1.48268 1.3892 1.44567 1.39266 1.51069 1.45669 1.44567 1.39636 1.39266 1.45669 1.44567 1.45669 1.39266 1.55681 1.46952 1.53146 1.39636 1.45669 1.46952 1.51069 1.53146 1.45669 1.46952 1.45669 1.53146 1.0125 1.06772 1.10987 1.11011 1.15293 1.06772 1.2089 1.10987 1.15293 1.06772 1.15293 1.10987 1.16884 1.20901 1.14298 1.25881 1.18491 1.20901 1.11011 1.14298 1.18491 1.20901 1.18491 1.14298 1.39848 1.30617 1.32078 1.2089 1.2381 1.30617 1.25881 1.32078 1.2381 1.30617 1.2381 1.32078 1.11011 1.18491 1.15293 1.25881 1.2381 1.18491 1.2089 1.15293 1.2381 1.18491 1.2381 1.15293 1.3892 1.39266 1.33833 1.39636 1.33533 1.39266 1.28437 1.33833 1.33533 1.39266 1.33533 1.33833 1.39848 1.32078 1.39847 1.25881 1.32977 1.32078 1.39636 1.39847 1.32977 1.32078 1.32977 1.39847 1.16884 1.22737 1.20901 1.28437 1.27352 1.22737 1.25881 1.20901 1.27352 1.22737 1.27352 1.20901 1.39636 1.32977 1.33533 1.25881 1.27352 1.32977 1.28437 1.33533 1.27352 1.32977 1.27352 1.33533 0.832734 0.885892 0.842771 0.939562 0.900282 0.885892 0.854566 0.842771 0.900282 0.885892 0.900282 0.842771 1.04525 1.01509 0.992917 0.979321 0.958061 1.01509 0.939562 0.992917 0.958061 1.01509 0.958061 0.992917 0.887007 0.869163 0.937136 0.854566 0.917031 0.869163 0.979321 0.937136 0.917031 0.869163 0.917031 0.937136 0.939562 0.958061 0.900282 0.979321 0.917031 0.958061 0.854566 0.900282 0.917031 0.958061 0.917031 0.900282 1.2313 1.21981 1.18923 1.20613 1.17368 1.21981 1.14398 1.18923 1.17368 1.21981 1.17368 1.18923 1.16884 1.13183 1.18941 1.09904 1.15464 1.13183 1.20613 1.18941 1.15464 1.13183 1.15464 1.18941 1.04525 1.09575 1.07059 1.14398 1.12353 1.09575 1.09904 1.07059 1.12353 1.09575 1.12353 1.07059 1.20613 1.15464 1.17368 1.09904 1.12353 1.15464 1.14398 1.17368 1.12353 1.15464 1.12353 1.17368 1.0125 0.970472 1.06772 0.936293 1.02554 0.970472 1.11011 1.06772 1.02554 0.970472 1.02554 1.06772 0.887007 0.961265 0.909096 1.03394 0.990229 0.961265 0.936293 0.909096 0.990229 0.961265 0.990229 0.909096 1.16884 1.14298 1.10378 1.11011 1.06906 1.14298 1.03394 1.10378 1.06906 1.14298 1.06906 1.10378 0.936293 0.990229 1.02554 1.03394 1.06906 0.990229 1.11011 1.02554 1.06906 0.990229 1.06906 1.02554 1.04525 1.07059 1.01509 1.09904 1.04035 1.07059 0.979321 1.01509 1.04035 1.07059 1.04035 1.01509 1.16884 1.10378 1.13183 1.03394 1.06963 1.10378 1.09904 1.13183 1.06963 1.10378 1.06963 1.13183 0.887007 0.937136 0.961265 0.979321 1.00445 0.937136 1.03394 0.961265 1.00445 0.937136 1.00445 0.961265 1.09904 1.06963 1.04035 1.03394 1.00445 1.06963 0.979321 1.04035 1.00445 1.06963 1.00445 1.04035 0.832734 0.842771 0.800567 0.854566 0.808641 0.842771 0.765245 0.800567 0.808641 0.842771 0.808641 0.800567 0.887007 0.831174 0.869163 0.778316 0.818624 0.831174 0.854566 0.869163 0.818624 0.831174 0.818624 0.869163 0.681803 0.725591 0.728376 0.765245 0.77087 0.725591 0.778316 0.728376 0.77087 0.725591 0.77087 0.728376 0.854566 0.818624 0.808641 0.778316 0.77087 0.818624 0.765245 0.808641 0.77087 0.818624 0.77087 0.808641 1.0125 0.925516 0.970472 0.841374 0.892627 0.925516 0.936293 0.970472 0.892627 0.925516 0.892627 0.970472 0.686083 0.747908 0.760883 0.801278 0.818552 0.747908 0.841374 0.760883 0.818552 0.747908 0.818552 0.760883 0.887007 0.909096 0.847017 0.936293 0.867178 0.909096 0.801278 0.847017 0.867178 0.909096 0.867178 0.847017 0.841374 0.818552 0.892627 0.801278 0.867178 0.818552 0.936293 0.892627 0.867178 0.818552 0.867178 0.892627 0.454356 0.519687 0.501869 0.579249 0.568124 0.519687 0.55615 0.501869 0.568124 0.519687 0.568124 0.501869 0.681803 0.680849 0.633124 0.680827 0.627602 0.680849 0.579249 0.633124 0.627602 0.680849 0.627602 0.633124 0.686083 0.617601 0.682349 0.55615 0.622267 0.617601 0.680827 0.682349 0.622267 0.617601 0.622267 0.682349 0.579249 0.627602 0.568124 0.680827 0.622267 0.627602 0.55615 0.568124 0.622267 0.627602 0.622267 0.568124 0.887007 0.847017 0.831174 0.801278 0.788229 0.847017 0.778316 0.831174 0.788229 0.847017 0.788229 0.831174 0.686083 0.682349 0.747908 0.680827 0.738822 0.682349 0.801278 0.747908 0.738822 0.682349 0.738822 0.747908 0.681803 0.728376 0.680849 0.778316 0.732537 0.728376 0.680827 0.680849 0.732537 0.728376 0.732537 0.680849 0.801278 0.738822 0.788229 0.680827 0.732537 0.738822 0.778316 0.788229 0.732537 0.738822 0.732537 0.788229 </DataArray>