<?xml version="1.0" encoding="UTF-8"?>
<VTKFile type="UnstructuredGrid" version="0.1" byte_order="LittleEndian" compressor="vtkZLibDataCompressor">
    <UnstructuredGrid>
        <Piece NumberOfPoints="1920" NumberOfCells="640">
            <Points>
                <DataArray type="Float64" Name="Array" NumberOfComponents="3" format="ascii" RangeMin="0" RangeMax="17.339917841761899">15 7.29289 0 14.9116 7.38128 0 14.8638 7.25061 0 14.8232 7.46967 0 14.7754 7.339 0 14.9116 7.38128 0 14.7275 7.20832 0 14.8638 7.25061 0 14.7754 7.339 0 14.9116 7.38128 0 14.7754 7.339 0 14.8638 7.25061 0 14.6464 7.64645 0 14.5986 7.51577 0 14.7348 7.55806 0 14.5508 7.3851 0 14.687 7.42738 0 14.5986 7.51577 0 14.8232 7.46967 0 14.7348 7.55806 0 14.687 7.42738 0 14.5986 7.51577 0 14.687 7.42738 0 14.7348 7.55806 0 14.4551 7.12375 0 14.5913 7.16604 0 14.5029 7.25442 0 14.7275 7.20832 0 14.6392 7.29671 0 14.5913 7.16604 0 14.5508 7.3851 0 14.5029 7.25442 0 14.6392 7.29671 0 14.5913 7.16604 0 14.6392 7.29671 0 14.5029 7.25442 0 14.8232 7.46967 0 14.687 7.42738 0 14.7754 7.339 0 14.5508 7.3851 0 14.6392 7.29671 0 14.687 7.42738 0 14.7275 7.20832 0 14.7754 7.339 0 14.6392 7.29671 0 14.687 7.42738 0 14.6392 7.29671 0 14.7754 7.339 0 14.2929 8 0 14.2451 7.86933 0 14.3813 7.91161 0 14.1972 7.73865 0 14.3334 7.78094 0 14.2451 7.86933 0 14.4697 7.82322 0 14.3813 7.91161 0 14.3334 7.78094 0 14.2451 7.86933 0 14.3334 7.78094 0 14.3813 7.91161 0 14.1015 7.4773 0 14.2378 7.51959 0 14.1494 7.60798 0 14.374 7.56188 0 14.2856 7.65026 0 14.2378 7.51959 0 14.1972 7.73865 0 14.1494 7.60798 0 14.2856 7.65026 0 14.2378 7.51959 0 14.2856 7.65026 0 14.1494 7.60798 0 14.6464 7.64645 0 14.5581 7.73483 0 14.5102 7.60416 0 14.4697 7.82322 0 14.4218 7.69255 0 14.5581 7.73483 0 14.374 7.56188 0 14.5102 7.60416 0 14.4218 7.69255 0 14.5581 7.73483 0 14.4218 7.69255 0 14.5102 7.60416 0 14.1972 7.73865 0 14.2856 7.65026 0 14.3334 7.78094 0 14.374 7.56188 0 14.4218 7.69255 0 14.2856 7.65026 0 14.4697 7.82322 0 14.3334 7.78094 0 14.4218 7.69255 0 14.2856 7.65026 0 14.4218 7.69255 0 14.3334 7.78094 0 13.9102 6.95461 0 14.0464 6.99689 0 13.958 7.08528 0 14.1826 7.03918 0 14.0942 7.12757 0 14.0464 6.99689 0 14.0058 7.21596 0 13.958 7.08528 0 14.0942 7.12757 0 14.0464 6.99689 0 14.0942 7.12757 0 13.958 7.08528 0 14.4551 7.12375 0 14.3667 7.21214 0 14.3189 7.08146 0 14.2783 7.30053 0 14.2305 7.16985 0 14.3667 7.21214 0 14.1826 7.03918 0 14.3189 7.08146 0 14.2305 7.16985 0 14.3667 7.21214 0 14.2305 7.16985 0 14.3189 7.08146 0 14.1015 7.4773 0 14.0537 7.34663 0 14.1899 7.38892 0 14.0058 7.21596 0 14.1421 7.25824 0 14.0537 7.34663 0 14.2783 7.30053 0 14.1899 7.38892 0 14.1421 7.25824 0 14.0537 7.34663 0 14.1421 7.25824 0 14.1899 7.38892 0 14.1826 7.03918 0 14.2305 7.16985 0 14.0942 7.12757 0 14.2783 7.30053 0 14.1421 7.25824 0 14.2305 7.16985 0 14.0058 7.21596 0 14.0942 7.12757 0 14.1421 7.25824 0 14.2305 7.16985 0 14.1421 7.25824 0 14.0942 7.12757 0 14.6464 7.64645 0 14.5102 7.60416 0 14.5986 7.51577 0 14.374 7.56188 0 14.4624 7.47349 0 14.5102 7.60416 0 14.5508 7.3851 0 14.5986 7.51577 0 14.4624 7.47349 0 14.5102 7.60416 0 14.4624 7.47349 0 14.5986 7.51577 0 14.1015 7.4773 0 14.1899 7.38892 0 14.2378 7.51959 0 14.2783 7.30053 0 14.3261 7.4312 0 14.1899 7.38892 0 14.374 7.56188 0 14.2378 7.51959 0 14.3261 7.4312 0 14.1899 7.38892 0 14.3261 7.4312 0 14.2378 7.51959 0 14.4551 7.12375 0 14.5029 7.25442 0 14.3667 7.21214 0 14.5508 7.3851 0 14.4145 7.34281 0 14.5029 7.25442 0 14.2783 7.30053 0 14.3667 7.21214 0 14.4145 7.34281 0 14.5029 7.25442 0 14.4145 7.34281 0 14.3667 7.21214 0 14.374 7.56188 0 14.3261 7.4312 0 14.4624 7.47349 0 14.2783 7.30053 0 14.4145 7.34281 0 14.3261 7.4312 0 14.5508 7.3851 0 14.4624 7.47349 0 14.4145 7.34281 0 14.3261 7.4312 0 14.4145 7.34281 0 14.4624 7.47349 0 16.0149 6.91257 0 15.8881 6.96011 0 15.876 6.81765 0 15.7612 7.00765 0 15.7492 6.86519 0 15.8881 6.96011 0 15.7371 6.72273 0 15.876 6.81765 0 15.7492 6.86519 0 15.8881 6.96011 0 15.7492 6.86519 0 15.876 6.81765 0 15.5075 7.10273 0 15.4954 6.96027 0 15.6343 7.05519 0 15.4834 6.81781 0 15.6223 6.91273 0 15.4954 6.96027 0 15.7612 7.00765 0 15.6343 7.05519 0 15.6223 6.91273 0 15.4954 6.96027 0 15.6223 6.91273 0 15.6343 7.05519 0 15.4594 6.53289 0 15.5983 6.62781 0 15.4714 6.67535 0 15.7371 6.72273 0 15.6103 6.77027 0 15.5983 6.62781 0 15.4834 6.81781 0 15.4714 6.67535 0 15.6103 6.77027 0 15.5983 6.62781 0 15.6103 6.77027 0 15.4714 6.67535 0 15.7612 7.00765 0 15.6223 6.91273 0 15.7492 6.86519 0 15.4834 6.81781 0 15.6103 6.77027 0 15.6223 6.91273 0 15.7371 6.72273 0 15.7492 6.86519 0 15.6103 6.77027 0 15.6223 6.91273 0 15.6103 6.77027 0 15.7492 6.86519 0 15 7.29289 0 14.988 7.15043 0 15.1269 7.24535 0 14.976 7.00797 0 15.1148 7.10289 0 14.988 7.15043 0 15.2537 7.19781 0 15.1269 7.24535 0 15.1148 7.10289 0 14.988 7.15043 0 15.1148 7.10289 0 15.1269 7.24535 0 14.9519 6.72305 0 15.0908 6.81797 0 14.9639 6.86551 0 15.2297 6.91289 0 15.1028 6.96043 0 15.0908 6.81797 0 14.976 7.00797 0 14.9639 6.86551 0 15.1028 6.96043 0 15.0908 6.81797 0 15.1028 6.96043 0 14.9639 6.86551 0 15.5075 7.10273 0 15.3806 7.15027 0 15.3686 7.00781 0 15.2537 7.19781 0 15.2417 7.05535 0 15.3806 7.15027 0 15.2297 6.91289 0 15.3686 7.00781 0 15.2417 7.05535 0 15.3806 7.15027 0 15.2417 7.05535 0 15.3686 7.00781 0 14.976 7.00797 0 15.1028 6.96043 0 15.1148 7.10289 0 15.2297 6.91289 0 15.2417 7.05535 0 15.1028 6.96043 0 15.2537 7.19781 0 15.1148 7.10289 0 15.2417 7.05535 0 15.1028 6.96043 0 15.2417 7.05535 0 15.1148 7.10289 0 14.9038 6.15321 0 15.0427 6.24813 0 14.9159 6.29567 0 15.1816 6.34305 0 15.0547 6.39059 0 15.0427 6.24813 0 14.9279 6.43813 0 14.9159 6.29567 0 15.0547 6.39059 0 15.0427 6.24813 0 15.0547 6.39059 0 14.9159 6.29567 0 15.4594 6.53289 0 15.3325 6.58043 0 15.3205 6.43797 0 15.2056 6.62797 0 15.1936 6.48551 0 15.3325 6.58043 0 15.1816 6.34305 0 15.3205 6.43797 0 15.1936 6.48551 0 15.3325 6.58043 0 15.1936 6.48551 0 15.3205 6.43797 0 14.9519 6.72305 0 14.9399 6.58059 0 15.0788 6.67551 0 14.9279 6.43813 0 15.0668 6.53305 0 14.9399 6.58059 0 15.2056 6.62797 0 15.0788 6.67551 0 15.0668 6.53305 0 14.9399 6.58059 0 15.0668 6.53305 0 15.0788 6.67551 0 15.1816 6.34305 0 15.1936 6.48551 0 15.0547 6.39059 0 15.2056 6.62797 0 15.0668 6.53305 0 15.1936 6.48551 0 14.9279 6.43813 0 15.0547 6.39059 0 15.0668 6.53305 0 15.1936 6.48551 0 15.0668 6.53305 0 15.0547 6.39059 0 15.5075 7.10273 0 15.3686 7.00781 0 15.4954 6.96027 0 15.2297 6.91289 0 15.3566 6.86535 0 15.3686 7.00781 0 15.4834 6.81781 0 15.4954 6.96027 0 15.3566 6.86535 0 15.3686 7.00781 0 15.3566 6.86535 0 15.4954 6.96027 0 14.9519 6.72305 0 15.0788 6.67551 0 15.0908 6.81797 0 15.2056 6.62797 0 15.2177 6.77043 0 15.0788 6.67551 0 15.2297 6.91289 0 15.0908 6.81797 0 15.2177 6.77043 0 15.0788 6.67551 0 15.2177 6.77043 0 15.0908 6.81797 0 15.4594 6.53289 0 15.4714 6.67535 0 15.3325 6.58043 0 15.4834 6.81781 0 15.3445 6.72289 0 15.4714 6.67535 0 15.2056 6.62797 0 15.3325 6.58043 0 15.3445 6.72289 0 15.4714 6.67535 0 15.3445 6.72289 0 15.3325 6.58043 0 15.2297 6.91289 0 15.2177 6.77043 0 15.3566 6.86535 0 15.2056 6.62797 0 15.3445 6.72289 0 15.2177 6.77043 0 15.4834 6.81781 0 15.3566 6.86535 0 15.3445 6.72289 0 15.2177 6.77043 0 15.3445 6.72289 0 15.3566 6.86535 0 14.2929 8 0 14.2555 8.14756 0 14.1378 8.02219 0 14.2181 8.29513 0 14.1004 8.16976 0 14.2555 8.14756 0 13.9828 8.04438 0 14.1378 8.02219 0 14.1004 8.16976 0 14.2555 8.14756 0 14.1004 8.16976 0 14.1378 8.02219 0 14.1433 8.59026 0 14.0257 8.46489 0 14.1807 8.44269 0 13.908 8.33951 0 14.0631 8.31732 0 14.0257 8.46489 0 14.2181 8.29513 0 14.1807 8.44269 0 14.0631 8.31732 0 14.0257 8.46489 0 14.0631 8.31732 0 14.1807 8.44269 0 13.6727 8.08877 0 13.8277 8.06658 0 13.7903 8.21414 0 13.9828 8.04438 0 13.9454 8.19195 0 13.8277 8.06658 0 13.908 8.33951 0 13.7903 8.21414 0 13.9454 8.19195 0 13.8277 8.06658 0 13.9454 8.19195 0 13.7903 8.21414 0 14.2181 8.29513 0 14.0631 8.31732 0 14.1004 8.16976 0 13.908 8.33951 0 13.9454 8.19195 0 14.0631 8.31732 0 13.9828 8.04438 0 14.1004 8.16976 0 13.9454 8.19195 0 14.0631 8.31732 0 13.9454 8.19195 0 14.1004 8.16976 0 13.9938 9.18051 0 13.8761 9.05514 0 14.0312 9.03295 0 13.7584 8.92977 0 13.9135 8.90758 0 13.8761 9.05514 0 14.0686 8.88539 0 14.0312 9.03295 0 13.9135 8.90758 0 13.8761 9.05514 0 13.9135 8.90758 0 14.0312 9.03295 0 13.5231 8.67903 0 13.6782 8.65683 0 13.6408 8.8044 0 13.8332 8.63464 0 13.7958 8.78221 0 13.6782 8.65683 0 13.7584 8.92977 0 13.6408 8.8044 0 13.7958 8.78221 0 13.6782 8.65683 0 13.7958 8.78221 0 13.6408 8.8044 0 14.1433 8.59026 0 14.1059 8.73782 0 13.9883 8.61245 0 14.0686 8.88539 0 13.9509 8.76001 0 14.1059 8.73782 0 13.8332 8.63464 0 13.9883 8.61245 0 13.9509 8.76001 0 14.1059 8.73782 0 13.9509 8.76001 0 13.9883 8.61245 0 13.7584 8.92977 0 13.7958 8.78221 0 13.9135 8.90758 0 13.8332 8.63464 0 13.9509 8.76001 0 13.7958 8.78221 0 14.0686 8.88539 0 13.9135 8.90758 0 13.9509 8.76001 0 13.7958 8.78221 0 13.9509 8.76001 0 13.9135 8.90758 0 13.0524 8.17754 0 13.2075 8.15534 0 13.1701 8.30291 0 13.3626 8.13315 0 13.3252 8.28072 0 13.2075 8.15534 0 13.2878 8.42828 0 13.1701 8.30291 0 13.3252 8.28072 0 13.2075 8.15534 0 13.3252 8.28072 0 13.1701 8.30291 0 13.6727 8.08877 0 13.6353 8.23633 0 13.5176 8.11096 0 13.5979 8.3839 0 13.4802 8.25852 0 13.6353 8.23633 0 13.3626 8.13315 0 13.5176 8.11096 0 13.4802 8.25852 0 13.6353 8.23633 0 13.4802 8.25852 0 13.5176 8.11096 0 13.5231 8.67903 0 13.4054 8.55365 0 13.5605 8.53146 0 13.2878 8.42828 0 13.4428 8.40609 0 13.4054 8.55365 0 13.5979 8.3839 0 13.5605 8.53146 0 13.4428 8.40609 0 13.4054 8.55365 0 13.4428 8.40609 0 13.5605 8.53146 0 13.3626 8.13315 0 13.4802 8.25852 0 13.3252 8.28072 0 13.5979 8.3839 0 13.4428 8.40609 0 13.4802 8.25852 0 13.2878 8.42828 0 13.3252 8.28072 0 13.4428 8.40609 0 13.4802 8.25852 0 13.4428 8.40609 0 13.3252 8.28072 0 14.1433 8.59026 0 13.9883 8.61245 0 14.0257 8.46489 0 13.8332 8.63464 0 13.8706 8.48708 0 13.9883 8.61245 0 13.908 8.33951 0 14.0257 8.46489 0 13.8706 8.48708 0 13.9883 8.61245 0 13.8706 8.487
[...]
            <PointData>
                <DataArray Name="p" type="Float64" format="ascii">-3.14147 0.371316 -0.768676 0.923793 0.324173 0.371316 0.190759 -0.768676 0.324173 0.371316 0.324173 -0.768676 2.19581 1.83259 1.6184 1.5452 1.19634 1.83259 0.923793 1.6184 1.19634 1.83259 1.19634 1.6184 1.27549 0.831787 1.37243 0.190759 0.907011 0.831787 1.5452 1.37243 0.907011 0.831787 0.907011 1.37243 0.923793 1.19634 0.324173 1.5452 0.907011 1.19634 0.190759 0.324173 0.907011 1.19634 0.907011 0.324173 4.98363 4.00916 3.79059 3.4637 3.44653 4.00916 3.25621 3.79059 3.44653 4.00916 3.44653 3.79059 2.74831 2.72871 3.07868 2.60605 3.0633 2.72871 3.4637 3.07868 3.0633 2.72871 3.0633 3.07868 2.19581 2.71993 2.39486 3.25621 2.91697 2.71993 2.60605 2.39486 2.91697 2.71993 2.91697 2.39486 3.4637 3.0633 3.44653 2.60605 2.91697 3.0633 3.25621 3.44653 2.91697 3.0633 2.91697 3.44653 1.90294 1.84719 2.05623 1.74363 2.00503 1.84719 2.24365 2.05623 2.00503 1.84719 2.00503 2.05623 1.27549 1.69555 1.56395 2.09 1.89671 1.69555 1.74363 1.56395 1.89671 1.69555 1.89671 1.56395 2.74831 2.47264 2.4422 2.24365 2.20161 2.47264 2.09 2.4422 2.20161 2.47264 2.20161 2.4422 1.74363 1.89671 2.00503 2.09 2.20161 1.89671 2.24365 2.00503 2.20161 1.89671 2.20161 2.00503 2.19581 2.39486 1.83259 2.60605 2.10354 2.39486 1.5452 1.83259 2.10354 2.39486 2.10354 1.83259 2.74831 2.4422 2.72871 2.09 2.32736 2.4422 2.60605 2.72871 2.32736 2.4422 2.32736 2.72871 1.27549 1.37243 1.69555 1.5452 1.87195 1.37243 2.09 1.69555 1.87195 1.37243 1.87195 1.69555 2.60605 2.32736 2.10354 2.09 1.87195 2.32736 1.5452 2.10354 1.87195 2.32736 1.87195 2.10354 -1.2451 -1.32051 -1.2129 -1.40598 -1.29216 -1.32051 -1.12959 -1.2129 -1.29216 -1.32051 -1.29216 -1.2129 -1.64299 -1.49759 -1.508 -1.2732 -1.38354 -1.49759 -1.40598 -1.508 -1.38354 -1.49759 -1.38354 -1.508 -0.764112 -0.979205 -1.01385 -1.12959 -1.19836 -0.979205 -1.2732 -1.01385 -1.19836 -0.979205 -1.19836 -1.01385 -1.40598 -1.38354 -1.29216 -1.2732 -1.19836 -1.38354 -1.12959 -1.29216 -1.19836 -1.38354 -1.19836 -1.29216 -3.14147 -2.03238 -2.88204 -1.23508 -2.05601 -2.03238 -2.10005 -2.88204 -2.05601 -2.03238 -2.05601 -2.88204 -0.39871 -0.939087 -0.747075 -1.42776 -1.4433 -0.939087 -1.23508 -0.747075 -1.4433 -0.939087 -1.4433 -0.747075 -1.64299 -1.83519 -1.63735 -2.10005 -1.85047 -1.83519 -1.42776 -1.63735 -1.85047 -1.83519 -1.85047 -1.63735 -1.23508 -1.4433 -2.05601 -1.42776 -1.85047 -1.4433 -2.10005 -2.05601 -1.85047 -1.4433 -1.85047 -2.05601 0.236899 0.0128162 0.138809 -0.240536 -0.131121 0.0128162 0.0113154 0.138809 -0.131121 0.0128162 -0.131121 0.138809 -0.764112 -0.745112 -0.507325 -0.692373 -0.436822 -0.745112 -0.240536 -0.507325 -0.436822 -0.745112 -0.436822 -0.507325 -0.39871 -0.160179 -0.582099 0.0113154 -0.322129 -0.160179 -0.692373 -0.582099 -0.322129 -0.160179 -0.322129 -0.582099 -0.240536 -0.436822 -0.131121 -0.692373 -0.322129 -0.436822 0.0113154 -0.131121 -0.322129 -0.436822 -0.322129 -0.131121 -1.64299 -1.63735 -1.49759 -1.42776 -1.35478 -1.63735 -1.2732 -1.49759 -1.35478 -1.63735 -1.35478 -1.49759 -0.39871 -0.582099 -0.939087 -0.692373 -1.02626 -0.582099 -1.42776 -0.939087 -1.02626 -0.582099 -1.02626 -0.939087 -0.764112 -1.01385 -0.745112 -1.2732 -1.03329 -1.01385 -0.692373 -0.745112 -1.03329 -1.01385 -1.03329 -0.745112 -1.42776 -1.02626 -1.35478 -0.692373 -1.03329 -1.02626 -1.2732 -1.35478 -1.03329 -1.02626 -1.03329 -1.35478 4.98363 3.87376 4.14724 3.32104 3.73296 3.87376 3.6609 4.14724 3.73296 3.87376 3.73296 4.14724 2.53875 2.90116 2.89864 3.11235 3.27833 2.90116 3.32104 2.89864 3.27833 2.90116 3.27833 2.89864 3.05471 3.32426 3.14725 3.6609 3.42111 3.32426 3.11235 3.14725 3.42111 3.32426 3.42111 3.14725 3.32104 3.27833 3.73296 3.11235 3.42111 3.27833 3.6609 3.73296 3.42111 3.27833 3.42111 3.73296 1.66557 1.90536 1.81467 2.11601 2.08813 1.90536 2.00403 1.81467 2.08813 1.90536 2.08813 1.81467 2.39647 2.47841 2.28257 2.54619 2.31468 2.47841 2.11601 2.28257 2.31468 2.47841 2.31468 2.28257 2.53875 2.24326 2.58006 2.00403 2.31029 2.24326 2.54619 2.58006 2.31029 2.24326 2.31029 2.58006 2.11601 2.31468 2.08813 2.54619 2.31029 2.31468 2.00403 2.08813 2.31029 2.31468 2.31029 2.08813 2.39322 2.5152 2.44311 2.66169 2.57498 2.5152 2.46837 2.44311 2.57498 2.5152 2.57498 2.44311 3.05471 2.92008 2.83835 2.75073 2.73153 2.92008 2.66169 2.83835 2.73153 2.92008 2.73153 2.83835 2.39647 2.45628 2.57196 2.46837 2.59943 2.45628 2.75073 2.57196 2.59943 2.45628 2.59943 2.57196 2.66169 2.73153 2.57498 2.75073 2.59943 2.73153 2.46837 2.57498 2.59943 2.73153 2.59943 2.57498 2.53875 2.58006 2.90116 2.54619 2.81353 2.58006 3.11235 2.90116 2.81353 2.58006 2.81353 2.90116 2.39647 2.57196 2.47841 2.75073 2.69411 2.57196 2.54619 2.47841 2.69411 2.57196 2.69411 2.47841 3.05471 3.14725 2.92008 3.11235 2.92414 3.14725 2.75073 2.92008 2.92414 3.14725 2.92414 2.92008 2.54619 2.69411 2.81353 2.75073 2.92414 2.69411 3.11235 2.81353 2.92414 2.69411 2.92414 2.81353 -3.14147 -0.768676 -2.03238 0.190759 -0.856752 -0.768676 -1.23508 -2.03238 -0.856752 -0.768676 -0.856752 -2.03238 1.27549 0.705966 0.831787 0.17677 0.0969689 0.705966 0.190759 0.831787 0.0969689 0.705966 0.0969689 0.831787 -0.39871 -0.747075 -0.19645 -1.23508 -0.474494 -0.747075 0.17677 -0.19645 -0.474494 -0.747075 -0.474494 -0.19645 0.190759 0.0969689 -0.856752 0.17677 -0.474494 0.0969689 -1.23508 -0.856752 -0.474494 0.0969689 -0.474494 -0.856752 1.90294 1.67229 1.84719 1.41801 1.56006 1.67229 1.74363 1.84719 1.56006 1.67229 1.56006 1.84719 0.902723 0.943135 1.15463 1.00777 1.24948 0.943135 1.41801 1.15463 1.24948 0.943135 1.24948 1.15463 1.27549 1.56395 1.11131 1.74363 1.38211 1.56395 1.00777 1.11131 1.38211 1.56395 1.38211 1.11131 1.41801 1.24948 1.56006 1.00777 1.38211 1.24948 1.74363 1.56006 1.38211 1.24948 1.38211 1.56006 0.236899 0.138809 0.345723 0.0113154 0.262607 0.138809 0.491746 0.345723 0.262607 0.138809 0.262607 0.345723 -0.39871 0.00689851 -0.160179 0.368009 0.15415 0.00689851 0.0113154 -0.160179 0.15415 0.00689851 0.15415 -0.160179 0.902723 0.678195 0.665771 0.491746 0.436902 0.678195 0.368009 0.665771 0.436902 0.678195 0.436902 0.665771 0.0113154 0.15415 0.262607 0.368009 0.436902 0.15415 0.491746 0.262607 0.436902 0.15415 0.436902 0.262607 1.27549 1.11131 0.705966 1.00777 0.662785 1.11131 0.17677 0.705966 0.662785 1.11131 0.662785 0.705966 0.902723 0.665771 0.943135 0.368009 0.657903 0.665771 1.00777 0.943135 0.657903 0.665771 0.657903 0.943135 -0.39871 -0.19645 0.00689851 0.17677 0.28125 -0.19645 0.368009 0.00689851 0.28125 -0.19645 0.28125 0.00689851 1.00777 0.657903 0.662785 0.368009 0.28125 0.657903 0.17677 0.662785 0.28125 0.657903 0.28125 0.662785 1.90294 2.05623 2.15958 2.24365 2.34513 2.05623 2.37647 2.15958 2.34513 2.05623 2.34513 2.15958 2.74831 2.82144 2.47264 2.79203 2.56301 2.82144 2.24365 2.47264 2.56301 2.82144 2.56301 2.47264 2.6107 2.5306 2.71217 2.37647 2.57216 2.5306 2.79203 2.71217 2.57216 2.5306 2.57216 2.71217 2.24365 2.56301 2.34513 2.79203 2.57216 2.56301 2.37647 2.34513 2.57216 2.56301 2.57216 2.34513 4.98363 4.14724 4.00916 3.6609 3.87879 4.14724 3.4637 4.00916 3.87879 4.14724 3.87879 4.00916 3.05471 3.23913 3.32426 3.29768 3.53405 3.23913 3.6609 3.32426 3.53405 3.23913 3.53405 3.32426 2.74831 3.07868 3.12289 3.4637 3.47455 3.07868 3.29768 3.12289 3.47455 3.07868 3.47455 3.12289 3.6609 3.53405 3.87879 3.29768 3.47455 3.53405 3.4637 3.87879 3.47455 3.53405 3.47455 3.87879 2.39322 2.49192 2.5152 2.57341 2.63037 2.49192 2.66169 2.5152 2.63037 2.49192 2.63037 2.5152 2.6107 2.75649 2.61964 2.89022 2.71989 2.75649 2.57341 2.61964 2.71989 2.75649 2.71989 2.61964 3.05471 2.83835 2.99661 2.66169 2.79647 2.83835 2.89022 2.99661 2.79647 2.83835 2.79647 2.99661 2.57341 2.71989 2.63037 2.89022 2.79647 2.71989 2.66169 2.63037 2.79647 2.71989 2.79647 2.63037 2.74831 3.12289 2.82144 3.29768 3.03741 3.12289 2.79203 2.82144 3.03741 3.12289 3.03741 2.82144 3.05471 2.99661 3.23913 2.89022 3.08577 2.99661 3.29768 3.23913 3.08577 2.99661 3.08577 3.23913 2.6107 2.71217 2.75649 2.79203 2.90066 2.71217 2.89022 2.75649 2.90066 2.71217 2.90066 2.75649 3.29768 3.08577 3.03741 2.89022 2.90066 3.08577 2.79203 3.03741 2.90066 3.08577 2.90066 3.03741 1.90294 2.15958 1.95538 2.37647 2.14791 2.15958 1.967 1.95538 2.14791 2.15958 2.14791 1.95538 2.6107 2.40692 2.5306 2.22398 2.30265 2.40692 2.37647 2.5306 2.30265 2.40692 2.30265 2.5306 1.93103 1.95519 2.06526 1.967 2.11195 1.95519 2.22398 2.06526 2.11195 1.95519 2.11195 2.06526 2.37647 2.30265 2.14791 2.22398 2.11195 2.30265 1.967 2.14791 2.11195 2.30265 2.11195 2.14791 2.39322 2.35812 2.49192 2.29603 2.42061 2.35812 2.57341 2.49192 2.42061 2.35812 2.42061 2.49192 2.13087 2.22081 2.21732 2.32886 2.32572 2.22081 2.29603 2.21732 2.32572 2.22081 2.32572 2.21732 2.6107 2.61964 2.45703 2.57341 2.45809 2.61964 2.32886 2.45703 2.45809 2.61964 2.45809 2.45703 2.29603 2.32572 2.42061 2.32886 2.45809 2.32572 2.57341 2.42061 2.45809 2.32572 2.45809 2.42061 1.80723 1.83719 1.8798 1.86911 1.92082 1.83719 1.95856 1.8798 1.92082 1.83719 1.92082 1.8798 1.93103 2.01548 1.90096 2.07758 1.96699 2.01548 1.86911 1.90096 1.96699 2.01548 1.96699 1.90096 2.13087 2.04328 2.11498 1.95856 2.01408 2.04328 2.07758 2.11498 2.01408 2.04328 2.01408 2.11498 1.86911 1.96699 1.92082 2.07758 2.01408 1.96699 1.95856 1.92082 2.01408 1.96699 2.01408 1.92082 2.6107 2.45703 2.40692 2.32886 2.29623 2.45703 2.22398 2.40692 2.29623 2.45703 2.29623 2.40692 2.13087 2.11498 2.22081 2.07758 2.19943 2.11498 2.32886 2.22081 2.19943 2.11498 2.19943 2.22081 1.93103 2.06526 2.01548 2.22398 2.14767 2.06526 2.07758 2.01548 2.14767 2.06526 2.14767 2.01548 2.32886 2.19943 2.29623 2.07758 2.14767 2.19943 2.22398 2.29623 2.14767 2.19943 2.14767 2.29623 0.236899 0.345723 0.424564 0.491746 0.550601 0.345723 0.595869 0.424564 0.550601 0.345723 0.550601 0.424564 0.902723 0.891187 0.678195 0.883956 0.706345 0.891187 0.491746 0.678195 0.706345 0.891187 0.706345 0.678195 0.876769 0.746818 0.879734 0.595869 0.728885 0.746818 0.883956 0.879734 0.728885 0.746818 0.728885 0.879734 0.491746 0.706345 0.550601 0.883956 0.728885 0.706345 0.595869 0.550601 0.728885 0.706345 0.728885 0.550601 1.90294 1.7463 1.67229 1.61626 1.53805 1.7463 1.41801 1.67229 1.53805 1.7463 1.53805 1.67229 1.42632 1.3496 1.51166 1.24427 1.43296 1.3496 1.61626 1.51166 1.43296 1.3496 1.43296 1.51166 0.902723 1.15463 1.09882 1.41801 1.31956 1.15463 1.24427 1.09882 1.31956 1.15463 1.31956 1.09882 1.61626 1.43296 1.53805 1.24427 1.31956 1.43296 1.41801 1.53805 1.31956 1.43296 1.31956 1.53805 1.21308 1.15158 1.25293 1.07764 1.18736 1.15158 1.29959 1.25293 1.18736 1.15158 1.18736 1.25293 0.876769 1.00447 0.98604 1.14149 1.10609 1.00447 1.07764 0.98604 1.10609 1.00447 1.10609 0.98604 1.42632 1.35683 1.28339 1.29959 1.23032 1.35683 1.14149 1.28339 1.23032 1.35683 1.23032 1.28339 1.07764 1.10609 1.18736 1.14149 1.23032 1.10609 1.29959 1.18736 1.23032 1.10609 1.23032 1.18736 0.902723 1.09882 0.891187 1.24427 1.05788 1.09882 0.883956 0.891187 1.05788 1.09882 1.05788 0.891187 1.42632 1.28339 1.3496 1.14149 1.18654 1.28339 1.24427 1.3496 1.18654 1.28339 1.18654 1.3496 0.876769 0.879734 1.00447 0.883956 1.02742 0.879734 1.14149 1.00447 1.02742 0.879734 1.02742 1.00447 1.24427 1.18654 1.05788 1.14149 1.02742 1.18654 0.883956 1.05788 1.02742 1.18654 1.02742 1.05788 1.21308 1.25293 1.32312 1.29959 1.37456 1.25293 1.42869 1.32312 1.37456 1.25293 1.37456 1.32312 1.42632 1.50526 1.35683 1.55768 1.43396 1.50526 1.29959 1.35683 1.43396 1.50526 1.43396 1.35683 1.61027 1.52535 1.59137 1.42869 1.48892 1.52535 1.55768 1.59137 1.48892 1.52535 1.48892 1.59137 1.29959 1.43396 1.37456 1.55768 1.48892 1.43396 1.42869 1.37456 1.48892 1.43396 1.48892 1.37456 1.90294 1.95538 1.7463 1.967 1.81342 1.95538 1.61626 1.7463 1.81342 1.95538 1.81342 1.7463 1.93103 1.84739 1.95519 1.73246 1.84218 1.84739 1.967 1.95519 1.84218 1.84739 1.84218 1.95519 1.42632 1.51166 1.59023 1.61626 1.69166 1.51166 1.73246 1.59023 1.69166 1.51166 1.69166 1.59023 1.967 1.84218 1.81342 1.73246 1.69166 1.84218 1.61626 1.81342 1.69166 1.84218 1.69166 1.81342 1.80723 1.77861 1.83719 1.73748 1.80169 1.77861 1.86911 1.83719 1.80169 1.77861 1.80169 1.83719 1.61027 1.67873 1.68101 1.75409 1.74866 1.67873 1.73748 1.68101 1.74866 1.67873 1.74866 1.68101 1.93103 1.90096 1.8387 1.86911 1.8219 1.90096 1.75409 1.8387 1.8219 1.90096 1.8219 1.8387 1.73748 1.74866 1.80169 1.75409 1.8219 1.74866 1.86911 1.80169 1.8219 1.74866 1.8219 1.80169 1.42632 1.59023 1.50526 1.73246 1.63852 1.59023 1.55768 1.50526 1.63852 1.59023 1.63852 1.50526 1.93103 1.8387 1.84739 1.75409 1.7506 1.8387 1.73246 1.84739 1.7506 1.8387 1.7506 1.84739 1.61027 1.59137 1.67873 1.55768 1.66553 1.59137 1.75409 1.67873 1.66553 1.59137 1.66553 1.67873 1.73246 1.7506 1.63852 1.75409 1.66553 1.7506 1.55768 1.63852 1.66553 1.7506 1.66553 1.63852 -0.613347 -0.6844 -0.607045 -0.758306 -0.674555 -0.6844 -0.585753 -0.607045 -0.674555 -0.6844 -0.674555 -0.607045 -0.91328 -0.81591 -0.834794 -0.709593 -0.744182 -0.81591 -0.758306 -0.834794 -0.744182 -0.81591 -0.744182 -0.834794 -0.498448 -0.549217 -0.602049 -0.585753 -0.647154 -0.549217 -0.709593 -0.602049 -0.647154 -0.549217 -0.647154 -0.602049 -0.758306 -0.744182 -0.674555 -0.709593 -0.647154 -0.744182 -0.585753 -0.674555 -0.647154 -0.744182 -0.647154 -0.674555 -1.2451 -1.12118 -1.15868 -0.968242 -1.04167 -1.12118 -1.07493 -1.15868 -1.04167 -1.12118 -1.04167 -1.15868 -0.649092 -0.757302 -0.805369 -0.837703 -0.903047 -0.757302 -0.968242 -0.805369 -0.903047 -0.757302 -0.903047 -0.805369 -0.91328 -0.993507 -0.889498 -1.07493 -0.964498 -0.993507 -0.837703 -0.889498 -0.964498 -0.993507 -0.964498 -0.889498 -0.968242 -0.903047 -1.04167 -0.837703 -0.964498 -0.903047 -1.07493 -1.04167 -0.964498 -0.903047 -0.964498 -1.04167 -0.179644 -0.272424 -0.274723 -0.358898 -0.374379 -0.272424 -0.383028 -0.274723 -0.374379 -0.272424 -0.374379 -0.274723 -0.498448 -0.540429 -0.434039 -0.580023 -0.463726 -0.540429 -0.358898 -0.434039 -0.463726 -0.540429 -0.463726 -0.434039 -0.649092 -0.507686 -0.617017 -0.383028 -0.488816 -0.507686 -0.580023 -0.617017 -0.488816 -0.507686 -0.488816 -0.617017 -0.358898 -0.463726 -0.374379 -0.580023 -0.488816 -0.463726 -0.383028 -0.374379 -0.488816 -0.463726 -0.488816 -0.374379 -0.91328 -0.889498 -0.81591 -0.837703 -0.773353 -0.889498 -0.709593 -0.81591 -0.773353 -0.889498 -0.773353 -0.81591 -0.649092 -0.617017 -0.757302 -0.580023 -0.706384 -0.617017 -0.837703 -0.757302 -0.706384 -0.617017 -0.706384 -0.757302 -0.498448 -0.602049 -0.540429 -0.709593 -0.654536 -0.602049 -0.580023 -0.540429 -0.654536 -0.602049 -0.654536 -0.540429 -0.837703 -0.706384 -0.773353 -0.580023 -0.654536 -0.706384 -0.709593 -0.773353 -0.654536 -0.706384 -0.654536 -0.773353 2.39322 2.30728 2.26305 2.20717 2.19425 2.30728 2.15669 2.26305 2.19425 2.30728 2.19425 2.26305 2.00054 2.03036 2.10271 2.03595 2.11449 2.03036 2.20717 2.10271 2.11449 2.03036 2.11449 2.10271 1.99608 2.06902 2.0227 2.15669 2.10065 2.06902 2.03595 2.0227 2.10065 2.06902 2.10065 2.0227 2.20717 2.11449 2.19425 2.03595 2.10065 2.11449 2.15669 2.19425 2.10065 2.11449 2.10065 2.19425 1.66893 1.72449 1.73899 1.76778 1.79306 1.72449 1.81713 1.73899 1.79306 1.72449 1.79306 1.73899 1.81687 1.85531 1.79831 1.8982 1.83159 1.85531 1.76778 1.79831 1.83159 1.85531 1.83159 1.79831 2.00054 1.90477 1.94686 1.81713 1.86693 1.90477 1.8982 1.94686 1.86693 1.90477 1.86693 1.94686 1.76778 1.83159 1.79306 1.8982 1.86693 1.83159 1.81713 1.79306 1.86693 1.83159 1.86693 1.79306 1.80307 1.83992 1.81596 1.88351 1.85574 1.83992 1.82393 1.81596 1.85574 1.83992 1.85574 1.81596 1.99608 1.95739 1.935 1.91302 1.90227 1.95739 1.88351 1.935 1.90227 1.95739 1.90227 1.935 1.81687 1.82479 1.86577 1.82393 1.86508 1.82479 1.91302 1.86577 1.86508 1.82479 1.86508 1.86577 1.88351 1.90227 1.85574 1.91302 1.86508 1.90227 1.82393 1.85574 1.86508 1.90227 1.86508 1.85574 2.00054 1.94686 2.03036 1.8982 1.96733 1.94686 2.03595 2.03036 1.96733 1.94686 1.96733 2.03036 1.81687 1.86577 1.85531 1.91302 1.91268 1.86577 1.8982 1.85531 1.91268 1.86577 1.91268 1.85531 1.99608 2.0227 1.95739 2.03595 1.96951 2.0227 1.91302 1.95739 1.96951 2.0227 1.96951 1.95739 1.8982 1.91268 1.96733 1.91302 1.96951 1.91268 2.03595 1.96733 1.96951 1.91268 1.96951 1.96733 </DataArray>