<?xml version="1.0" encoding="UTF-8"?>
<VTKFile type="UnstructuredGrid" version="0.1" byte_order="LittleEndian" compressor="vtkZLibDataCompressor">
    <UnstructuredGrid>
        <Piece NumberOfPoints="1920" NumberOfCells="640">
            <Points>
                <DataArray type="Float64" Name="Array" NumberOfComponents="3" format="ascii" RangeMin="0" RangeMax="25.559521039880501">17.3563 0 0 17.7281 0 0 17.5567 0.305087 0 18.0999 0 0 17.9285 0.305087 0 17.7281 0 0 17.757 0.610174 0 17.5567 0.305087 0 17.9285 0.305087 0 17.7281 0 0 17.9285 0.305087 0 17.5567 0.305087 0 18.8436 0 0 18.6721 0.305087 0 18.4717 0 0 18.5006 0.610174 0 18.3003 0.305087 0 18.6721 0.305087 0 18.0999 0 0 18.4717 0 0 18.3003 0.305087 0 18.6721 0.305087 0 18.3003 0.305087 0 18.4717 0 0 18.1577 1.22035 0 17.9574 0.915261 0 18.3292 0.915261 0 17.757 0.610174 0 18.1288 0.610174 0 17.9574 0.915261 0 18.5006 0.610174 0 18.3292 0.915261 0 18.1288 0.610174 0 17.9574 0.915261 0 18.1288 0.610174 0 18.3292 0.915261 0 18.0999 0 0 18.3003 0.305087 0 17.9285 0.305087 0 18.5006 0.610174 0 18.1288 0.610174 0 18.3003 0.305087 0 17.757 0.610174 0 17.9285 0.305087 0 18.1288 0.610174 0 18.3003 0.305087 0 18.1288 0.610174 0 17.9285 0.305087 0 20.3308 0 0 20.1593 0.305087 0 19.959 0 0 19.9879 0.610174 0 19.7875 0.305087 0 20.1593 0.305087 0 19.5872 0 0 19.959 0 0 19.7875 0.305087 0 20.1593 0.305087 0 19.7875 0.305087 0 19.959 0 0 19.645 1.22035 0 19.4446 0.915261 0 19.8164 0.915261 0 19.2443 0.610174 0 19.6161 0.610174 0 19.4446 0.915261 0 19.9879 0.610174 0 19.8164 0.915261 0 19.6161 0.610174 0 19.4446 0.915261 0 19.6161 0.610174 0 19.8164 0.915261 0 18.8436 0 0 19.2154 0 0 19.0439 0.305087 0 19.5872 0 0 19.4157 0.305087 0 19.2154 0 0 19.2443 0.610174 0 19.0439 0.305087 0 19.4157 0.305087 0 19.2154 0 0 19.4157 0.305087 0 19.0439 0.305087 0 19.9879 0.610174 0 19.6161 0.610174 0 19.7875 0.305087 0 19.2443 0.610174 0 19.4157 0.305087 0 19.6161 0.610174 0 19.5872 0 0 19.7875 0.305087 0 19.4157 0.305087 0 19.6161 0.610174 0 19.4157 0.305087 0 19.7875 0.305087 0 18.9591 2.4407 0 18.7588 2.13561 0 19.1306 2.13561 0 18.5584 1.83052 0 18.9302 1.83052 0 18.7588 2.13561 0 19.302 1.83052 0 19.1306 2.13561 0 18.9302 1.83052 0 18.7588 2.13561 0 18.9302 1.83052 0 19.1306 2.13561 0 18.1577 1.22035 0 18.5295 1.22035 0 18.3581 1.52543 0 18.9013 1.22035 0 18.7299 1.52543 0 18.5295 1.22035 0 18.5584 1.83052 0 18.3581 1.52543 0 18.7299 1.52543 0 18.5295 1.22035 0 18.7299 1.52543 0 18.3581 1.52543 0 19.645 1.22035 0 19.4735 1.52543 0 19.2731 1.22035 0 19.302 1.83052 0 19.1017 1.52543 0 19.4735 1.52543 0 18.9013 1.22035 0 19.2731 1.22035 0 19.1017 1.52543 0 19.4735 1.52543 0 19.1017 1.52543 0 19.2731 1.22035 0 18.5584 1.83052 0 18.7299 1.52543 0 18.9302 1.83052 0 18.9013 1.22035 0 19.1017 1.52543 0 18.7299 1.52543 0 19.302 1.83052 0 18.9302 1.83052 0 19.1017 1.52543 0 18.7299 1.52543 0 19.1017 1.52543 0 18.9302 1.83052 0 18.8436 0 0 19.0439 0.305087 0 18.6721 0.305087 0 19.2443 0.610174 0 18.8724 0.610174 0 19.0439 0.305087 0 18.5006 0.610174 0 18.6721 0.305087 0 18.8724 0.610174 0 19.0439 0.305087 0 18.8724 0.610174 0 18.6721 0.305087 0 19.645 1.22035 0 19.2731 1.22035 0 19.4446 0.915261 0 18.9013 1.22035 0 19.0728 0.915261 0 19.2731 1.22035 0 19.2443 0.610174 0 19.4446 0.915261 0 19.0728 0.915261 0 19.2731 1.22035 0 19.0728 0.915261 0 19.4446 0.915261 0 18.1577 1.22035 0 18.3292 0.915261 0 18.5295 1.22035 0 18.5006 0.610174 0 18.701 0.915261 0 18.3292 0.915261 0 18.9013 1.22035 0 18.5295 1.22035 0 18.701 0.915261 0 18.3292 0.915261 0 18.701 0.915261 0 18.5295 1.22035 0 19.2443 0.610174 0 19.0728 0.915261 0 18.8724 0.610174 0 18.9013 1.22035 0 18.701 0.915261 0 19.0728 0.915261 0 18.5006 0.610174 0 18.8724 0.610174 0 18.701 0.915261 0 19.0728 0.915261 0 18.701 0.915261 0 18.8724 0.610174 0 17.3563 0 0 17.5567 0.305087 0 17.1836 0.301095 0 17.757 0.610174 0 17.384 0.606182 0 17.5567 0.305087 0 17.0109 0.60219 0 17.1836 0.301095 0 17.384 0.606182 0 17.5567 0.305087 0 17.384 0.606182 0 17.1836 0.301095 0 18.1577 1.22035 0 17.7847 1.21636 0 17.9574 0.915261 0 17.4116 1.21236 0 17.5843 0.911269 0 17.7847 1.21636 0 17.757 0.610174 0 17.9574 0.915261 0 17.5843 0.911269 0 17.7847 1.21636 0 17.5843 0.911269 0 17.9574 0.915261 0 16.6655 1.20438 0 16.8382 0.903286 0 17.0386 1.20837 0 17.0109 0.60219 0 17.2113 0.907277 0 16.8382 0.903286 0 17.4116 1.21236 0 17.0386 1.20837 0 17.2113 0.907277 0 16.8382 0.903286 0 17.2113 0.907277 0 17.0386 1.20837 0 17.757 0.610174 0 17.5843 0.911269 0 17.384 0.606182 0 17.4116 1.21236 0 17.2113 0.907277 0 17.5843 0.911269 0 17.0109 0.60219 0 17.384 0.606182 0 17.2113 0.907277 0 17.5843 0.911269 0 17.2113 0.907277 0 17.384 0.606182 0 18.9591 2.4407 0 18.5861 2.4367 0 18.7588 2.13561 0 18.213 2.43271 0 18.3857 2.13162 0 18.5861 2.4367 0 18.5584 1.83052 0 18.7588 2.13561 0 18.3857 2.13162 0 18.5861 2.4367 0 18.3857 2.13162 0 18.7588 2.13561 0 17.4669 2.42473 0 17.6396 2.12363 0 17.84 2.42872 0 17.8123 1.82254 0 18.0127 2.12762 0 17.6396 2.12363 0 18.213 2.43271 0 17.84 2.42872 0 18.0127 2.12762 0 17.6396 2.12363 0 18.0127 2.12762 0 17.84 2.42872 0 18.1577 1.22035 0 18.3581 1.52543 0 17.985 1.52144 0 18.5584 1.83052 0 18.1854 1.82653 0 18.3581 1.52543 0 17.8123 1.82254 0 17.985 1.52144 0 18.1854 1.82653 0 18.3581 1.52543 0 18.1854 1.82653 0 17.985 1.52144 0 18.213 2.43271 0 18.0127 2.12762 0 18.3857 2.13162 0 17.8123 1.82254 0 18.1854 1.82653 0 18.0127 2.12762 0 18.5584 1.83052 0 18.3857 2.13162 0 18.1854 1.82653 0 18.0127 2.12762 0 18.1854 1.82653 0 18.3857 2.13162 0 15.9748 2.40876 0 16.1475 2.10767 0 16.3478 2.41275 0 16.3201 1.80657 0 16.5205 2.11166 0 16.1475 2.10767 0 16.7208 2.41675 0 16.3478 2.41275 0 16.5205 2.11166 0 16.1475 2.10767 0 16.5205 2.11166 0 16.3478 2.41275 0 16.6655 1.20438 0 16.8659 1.50947 0 16.4928 1.50548 0 17.0662 1.81455 0 16.6932 1.81056 0 16.8659 1.50947 0 16.3201 1.80657 0 16.4928 1.50548 0 16.6932 1.81056 0 16.8659 1.50947 0 16.6932 1.81056 0 16.4928 1.50548 0 17.4669 2.42473 0 17.0939 2.42074 0 17.2666 2.11964 0 16.7208 2.41675 0 16.8935 2.11565 0 17.0939 2.42074 0 17.0662 1.81455 0 17.2666 2.11964 0 16.8935 2.11565 0 17.0939 2.42074 0 16.8935 2.11565 0 17.2666 2.11964 0 16.3201 1.80657 0 16.6932 1.81056 0 16.5205 2.11166 0 17.0662 1.81455 0 16.8935 2.11565 0 16.6932 1.81056 0 16.7208 2.41675 0 16.5205 2.11166 0 16.8935 2.11565 0 16.6932 1.81056 0 16.8935 2.11565 0 16.5205 2.11166 0 18.1577 1.22035 0 17.985 1.52144 0 17.7847 1.21636 0 17.8123 1.82254 0 17.612 1.51745 0 17.985 1.52144 0 17.4116 1.21236 0 17.7847 1.21636 0 17.612 1.51745 0 17.985 1.52144 0 17.612 1.51745 0 17.7847 1.21636 0 17.4669 2.42473 0 17.2666 2.11964 0 17.6396 2.12363 0 17.0662 1.81455 0 17.4393 1.81855 0 17.2666 2.11964 0 17.8123 1.82254 0 17.6396 2.12363 0 17.4393 1.81855 0 17.2666 2.11964 0 17.4393 1.81855 0 17.6396 2.12363 0 16.6655 1.20438 0 17.0386 1.20837 0 16.8659 1.50947 0 17.4116 1.21236 0 17.2389 1.51346 0 17.0386 1.20837 0 17.0662 1.81455 0 16.8659 1.50947 0 17.2389 1.51346 0 17.0386 1.20837 0 17.2389 1.51346 0 16.8659 1.50947 0 17.8123 1.82254 0 17.4393 1.81855 0 17.612 1.51745 0 17.0662 1.81455 0 17.2389 1.51346 0 17.4393 1.81855 0 17.4116 1.21236 0 17.612 1.51745 0 17.2389 1.51346 0 17.4393 1.81855 0 17.2389 1.51346 0 17.612 1.51745 0 20.3308 0 0 20.7528 0 0 20.5344 0.343086 0 21.1749 0 0 20.9564 0.343086 0 20.7528 0 0 20.7379 0.686173 0 20.5344 0.343086 0 20.9564 0.343086 0 20.7528 0 0 20.9564 0.343086 0 20.5344 0.343086 0 22.019 0 0 21.8005 0.343086 0 21.5969 0 0 21.582 0.686173 0 21.3785 0.343086 0 21.8005 0.343086 0 21.1749 0 0 21.5969 0 0 21.3785 0.343086 0 21.8005 0.343086 0 21.3785 0.343086 0 21.5969 0 0 21.145 1.37235 0 20.9415 1.02926 0 21.3635 1.02926 0 20.7379 0.686173 0 21.16 0.686173 0 20.9415 1.02926 0 21.582 0.686173 0 21.3635 1.02926 0 21.16 0.686173 0 20.9415 1.02926 0 21.16 0.686173 0 21.3635 1.02926 0 21.1749 0 0 21.3785 0.343086 0 20.9564 0.343086 0 21.582 0.686173 0 21.16 0.686173 0 21.3785 0.343086 0 20.7379 0.686173 0 20.9564 0.343086 0 21.16 0.686173 0 21.3785 0.343086 0 21.16 0.686173 0 20.9564 0.343086 0 23.7072 0 0 23.4887 0.343086 0 23.2851 0 0 23.2702 0.686173 0 23.0666 0.343086 0 23.4887 0.343086 0 22.8631 0 0 23.2851 0 0 23.0666 0.343086 0 23.4887 0.343086 0 23.0666 0.343086 0 23.2851 0 0 22.8332 1.37235 0 22.6297 1.02926 0 23.0517 1.02926 0 22.4261 0.686173 0 22.8482 0.686173 0 22.6297 1.02926 0 23.2702 0.686173 0 23.0517 1.02926 0 22.8482 0.686173 0 22.6297 1.02926 0 22.8482 0.686173 0 23.0517 1.02926 0 22.019 0 0 22.441 0 0 22.2225 0.343086 0 22.8631 0 0 22.6446 0.343086 0 22.441 0 0 22.4261 0.686173 0 22.2225 0.343086 0 22.6446 0.343086 0 22.441 0 0 22.6446 0.343086 0 22.2225 0.343086 0 23.2702 0.686173 0 22.8482 0.686173 0 23.0666 0.343086 0 22.4261 0.686173 0 22.6446 0.343086 0 22.8482 0.686173 0 22.8631 0 0 23.0666 0.343086 0 22.6446 0.343086 0 22.8482 0.686173 0 22.6446 0.343086 0 23.0666 0.343086 0 21.9592 2.74469 0 21.7557 2.40161 0 22.1777 2.40161 0 21.5521 2.05852 0 21.9742 2.05852 0 21.7557 2.40161 0 22.3962 2.05852 0 22.1777 2.40161 0 21.9742 2.05852 0 21.7557 2.40161 0 21.9742 2.05852 0 22.1777 2.40161 0 21.145 1.37235 0 21.5671 1.37235 0 21.3486 1.71543 0 21.9891 1.37235 0 21.7706 1.71543 0 21.5671 1.37235 0 21.5521 2.05852 0 21.3486 1.71543 0 21.7706 1.71543 0 21.5671 1.37235 0 21.7706 1.71543 0 21.3486 1.71543 0 22.8332 1.37235 0 22.6147 1.71543 0 22.4112 1.37235 0 22.3962 2.05852 0 22.1927 1.71543 0 22.6147 1.71543 0 21.9891 1.37235 0 22.4112 1.37235 0 22.1927 1.71543 0 22.6147 1.71543 0 22.1927 1.71543 0 22.4112 1.37235 0 21.5521 2.05852 0 21.7706 1.71543 0 21.9742 2.05852 0 21.9891 1.37235 0 22.1927 1.71543 0 21.7706 1.71543 0 22.3962 2.05852 0 21.9742 2.05852 0 22.1927 1.71543 0 21.7706 1.71543 0 22.1927 1.71543 0 21.9742 2.05852 0 22.019 0 0 22.2225 0.343086 0 21.8005 0.343086 0 22.4261 0.686173 0 22.0041 0.686173 0 22.2225 0.343086 0 21.582 0.686173 0 21.8005 0.343086 0 22.0041 0.686173 0 22.2225 0.343086 0 22.0041 0.686173 0 21.8005 0.343086 0 22.8332 1.37235 0 22.4112 1.37235 0 22.62
[...]
            <PointData>
                <DataArray Name="p" type="Float64" format="ascii">0.503511 0.47017 0.487021 0.439116 0.455212 0.47017 0.469466 0.487021 0.455212 0.47017 0.455212 0.487021 0.384093 0.398486 0.410416 0.411164 0.425681 0.398486 0.439116 0.410416 0.425681 0.398486 0.425681 0.410416 0.427126 0.449746 0.421088 0.469466 0.439154 0.449746 0.411164 0.421088 0.439154 0.449746 0.439154 0.421088 0.439116 0.425681 0.455212 0.411164 0.439154 0.425681 0.469466 0.455212 0.439154 0.425681 0.439154 0.455212 0.301429 0.312274 0.318917 0.321915 0.330608 0.312274 0.338433 0.318917 0.330608 0.312274 0.330608 0.318917 0.334532 0.349183 0.329652 0.362136 0.340973 0.349183 0.321915 0.329652 0.340973 0.349183 0.340973 0.329652 0.384093 0.360122 0.373616 0.338433 0.351021 0.360122 0.362136 0.373616 0.351021 0.360122 0.351021 0.373616 0.321915 0.340973 0.330608 0.362136 0.351021 0.340973 0.338433 0.330608 0.351021 0.340973 0.351021 0.330608 0.311746 0.342793 0.324491 0.373026 0.35142 0.342793 0.332413 0.324491 0.35142 0.342793 0.35142 0.324491 0.427126 0.400394 0.401418 0.37612 0.377015 0.400394 0.373026 0.401418 0.377015 0.400394 0.377015 0.401418 0.334532 0.335666 0.354213 0.332413 0.355149 0.335666 0.37612 0.354213 0.355149 0.335666 0.355149 0.354213 0.373026 0.377015 0.35142 0.37612 0.355149 0.377015 0.332413 0.35142 0.355149 0.377015 0.355149 0.35142 0.384093 0.373616 0.398486 0.362136 0.385507 0.373616 0.411164 0.398486 0.385507 0.373616 0.385507 0.398486 0.334532 0.354213 0.349183 0.37612 0.370865 0.354213 0.362136 0.349183 0.370865 0.354213 0.370865 0.349183 0.427126 0.421088 0.400394 0.411164 0.394802 0.421088 0.37612 0.400394 0.394802 0.421088 0.394802 0.400394 0.362136 0.370865 0.385507 0.37612 0.394802 0.370865 0.411164 0.385507 0.394802 0.370865 0.394802 0.385507 0.503511 0.487021 0.521146 0.469466 0.502167 0.487021 0.537063 0.521146 0.502167 0.487021 0.502167 0.521146 0.427126 0.456616 0.449746 0.488681 0.480971 0.456616 0.469466 0.449746 0.480971 0.456616 0.480971 0.449746 0.560134 0.550296 0.523217 0.537063 0.51452 0.550296 0.488681 0.523217 0.51452 0.550296 0.51452 0.523217 0.469466 0.480971 0.502167 0.488681 0.51452 0.480971 0.537063 0.502167 0.51452 0.480971 0.51452 0.502167 0.311746 0.329631 0.342793 0.351066 0.364432 0.329631 0.373026 0.342793 0.364432 0.329631 0.364432 0.342793 0.406236 0.418089 0.376458 0.425736 0.389444 0.418089 0.351066 0.376458 0.389444 0.418089 0.389444 0.376458 0.427126 0.401418 0.428809 0.373026 0.397818 0.401418 0.425736 0.428809 0.397818 0.401418 0.397818 0.428809 0.351066 0.389444 0.364432 0.425736 0.397818 0.389444 0.373026 0.364432 0.397818 0.389444 0.397818 0.364432 0.571511 0.571096 0.523405 0.569803 0.52725 0.571096 0.47973 0.523405 0.52725 0.571096 0.52725 0.523405 0.560134 0.527962 0.566457 0.491357 0.529031 0.527962 0.569803 0.566457 0.529031 0.527962 0.529031 0.566457 0.406236 0.440586 0.450587 0.47973 0.486981 0.440586 0.491357 0.450587 0.486981 0.440586 0.486981 0.450587 0.569803 0.529031 0.52725 0.491357 0.486981 0.529031 0.47973 0.52725 0.486981 0.529031 0.486981 0.52725 0.427126 0.428809 0.456616 0.425736 0.459031 0.428809 0.488681 0.456616 0.459031 0.428809 0.459031 0.456616 0.406236 0.450587 0.418089 0.491357 0.456887 0.450587 0.425736 0.418089 0.456887 0.450587 0.456887 0.418089 0.560134 0.523217 0.527962 0.488681 0.492107 0.523217 0.491357 0.527962 0.492107 0.523217 0.492107 0.527962 0.425736 0.456887 0.459031 0.491357 0.492107 0.456887 0.488681 0.459031 0.492107 0.456887 0.492107 0.459031 0.301429 0.283906 0.296021 0.268558 0.279536 0.283906 0.289499 0.296021 0.279536 0.283906 0.279536 0.296021 0.243492 0.25249 0.255165 0.260848 0.265113 0.25249 0.268558 0.255165 0.265113 0.25249 0.265113 0.255165 0.273248 0.281855 0.268058 0.289499 0.274231 0.281855 0.260848 0.268058 0.274231 0.281855 0.274231 0.268058 0.268558 0.265113 0.279536 0.260848 0.274231 0.265113 0.289499 0.279536 0.274231 0.265113 0.274231 0.279536 0.209519 0.215662 0.216517 0.221674 0.223226 0.215662 0.224375 0.216517 0.223226 0.215662 0.223226 0.216517 0.233057 0.235888 0.227551 0.238809 0.229726 0.235888 0.221674 0.227551 0.229726 0.235888 0.229726 0.227551 0.243492 0.2333 0.241445 0.224375 0.231759 0.2333 0.238809 0.241445 0.231759 0.2333 0.231759 0.241445 0.221674 0.229726 0.223226 0.238809 0.231759 0.229726 0.224375 0.223226 0.231759 0.229726 0.231759 0.223226 0.240889 0.247265 0.242196 0.255245 0.247738 0.247265 0.240952 0.242196 0.247738 0.247265 0.247738 0.242196 0.273248 0.261263 0.264153 0.250684 0.254292 0.261263 0.255245 0.264153 0.254292 0.261263 0.254292 0.264153 0.233057 0.23774 0.241366 0.240952 0.245518 0.23774 0.250684 0.241366 0.245518 0.23774 0.245518 0.241366 0.255245 0.254292 0.247738 0.250684 0.245518 0.254292 0.240952 0.247738 0.245518 0.254292 0.245518 0.247738 0.243492 0.241445 0.25249 0.238809 0.249115 0.241445 0.260848 0.25249 0.249115 0.241445 0.249115 0.25249 0.233057 0.241366 0.235888 0.250684 0.245294 0.241366 0.238809 0.235888 0.245294 0.241366 0.245294 0.235888 0.273248 0.268058 0.261263 0.260848 0.25594 0.268058 0.250684 0.261263 0.25594 0.268058 0.25594 0.261263 0.238809 0.245294 0.249115 0.250684 0.25594 0.245294 0.260848 0.249115 0.25594 0.245294 0.25594 0.249115 0.301429 0.296021 0.312274 0.289499 0.304772 0.296021 0.321915 0.312274 0.304772 0.296021 0.304772 0.312274 0.273248 0.285741 0.281855 0.299989 0.295898 0.285741 0.289499 0.281855 0.295898 0.285741 0.295898 0.281855 0.334532 0.329652 0.316205 0.321915 0.311786 0.329652 0.299989 0.316205 0.311786 0.329652 0.311786 0.316205 0.289499 0.295898 0.304772 0.299989 0.311786 0.295898 0.321915 0.304772 0.311786 0.295898 0.311786 0.304772 0.240889 0.244174 0.247265 0.248363 0.253099 0.244174 0.255245 0.247265 0.253099 0.244174 0.253099 0.247265 0.260672 0.268718 0.253745 0.27333 0.26016 0.268718 0.248363 0.253745 0.26016 0.268718 0.26016 0.253745 0.273248 0.264153 0.274713 0.255245 0.263555 0.264153 0.27333 0.274713 0.263555 0.264153 0.263555 0.274713 0.248363 0.26016 0.253099 0.27333 0.263555 0.26016 0.255245 0.253099 0.263555 0.26016 0.263555 0.253099 0.311746 0.324491 0.294614 0.332413 0.306639 0.324491 0.280689 0.294614 0.306639 0.324491 0.306639 0.294614 0.334532 0.317187 0.335666 0.298332 0.314113 0.317187 0.332413 0.335666 0.314113 0.317187 0.314113 0.335666 0.260672 0.269506 0.2791 0.280689 0.291623 0.269506 0.298332 0.2791 0.291623 0.269506 0.291623 0.2791 0.332413 0.314113 0.306639 0.298332 0.291623 0.314113 0.280689 0.306639 0.291623 0.314113 0.291623 0.306639 0.273248 0.274713 0.285741 0.27333 0.286926 0.274713 0.299989 0.285741 0.286926 0.274713 0.286926 0.285741 0.260672 0.2791 0.268718 0.298332 0.284837 0.2791 0.27333 0.268718 0.284837 0.2791 0.284837 0.268718 0.334532 0.316205 0.317187 0.299989 0.301001 0.316205 0.298332 0.317187 0.301001 0.316205 0.301001 0.317187 0.27333 0.284837 0.286926 0.298332 0.301001 0.284837 0.299989 0.286926 0.301001 0.284837 0.301001 0.286926 0.240889 0.242196 0.237697 0.240952 0.236963 0.242196 0.235252 0.237697 0.236963 0.242196 0.236963 0.237697 0.233057 0.230428 0.23774 0.229085 0.234482 0.230428 0.240952 0.23774 0.234482 0.230428 0.234482 0.23774 0.231458 0.233279 0.229278 0.235252 0.232896 0.233279 0.229085 0.229278 0.232896 0.233279 0.232896 0.229278 0.240952 0.234482 0.236963 0.229085 0.232896 0.234482 0.235252 0.236963 0.232896 0.234482 0.232896 0.236963 0.209519 0.208901 0.215662 0.207955 0.214415 0.208901 0.221674 0.215662 0.214415 0.208901 0.214415 0.215662 0.207759 0.213002 0.207378 0.218842 0.213317 0.213002 0.207955 0.207378 0.213317 0.213002 0.213317 0.207378 0.233057 0.227551 0.225433 0.221674 0.219965 0.227551 0.218842 0.225433 0.219965 0.227551 0.219965 0.225433 0.207955 0.213317 0.214415 0.218842 0.219965 0.213317 0.221674 0.214415 0.219965 0.213317 0.219965 0.214415 0.222741 0.225363 0.217083 0.227629 0.220161 0.225363 0.212604 0.217083 0.220161 0.225363 0.220161 0.217083 0.231458 0.226147 0.22964 0.22019 0.223115 0.226147 0.227629 0.22964 0.223115 0.226147 0.223115 0.22964 0.207759 0.209458 0.213934 0.212604 0.216313 0.209458 0.22019 0.213934 0.216313 0.209458 0.216313 0.213934 0.227629 0.223115 0.220161 0.22019 0.216313 0.223115 0.212604 0.220161 0.216313 0.223115 0.216313 0.220161 0.233057 0.225433 0.230428 0.218842 0.224253 0.225433 0.229085 0.230428 0.224253 0.225433 0.224253 0.230428 0.207759 0.213934 0.213002 0.22019 0.218786 0.213934 0.218842 0.213002 0.218786 0.213934 0.218786 0.213002 0.231458 0.229278 0.226147 0.229085 0.224376 0.229278 0.22019 0.226147 0.224376 0.229278 0.224376 0.226147 0.218842 0.218786 0.224253 0.22019 0.224376 0.218786 0.229085 0.224253 0.224376 0.218786 0.224376 0.224253 0.571511 0.523405 0.524536 0.47973 0.476275 0.523405 0.473005 0.524536 0.476275 0.523405 0.476275 0.524536 0.406236 0.396478 0.440586 0.384913 0.433666 0.396478 0.47973 0.440586 0.433666 0.396478 0.433666 0.440586 0.356934 0.417077 0.371508 0.473005 0.425576 0.417077 0.384913 0.371508 0.425576 0.417077 0.425576 0.371508 0.47973 0.433666 0.476275 0.384913 0.425576 0.433666 0.473005 0.476275 0.425576 0.433666 0.425576 0.476275 0.311746 0.298957 0.329631 0.282644 0.316592 0.298957 0.351066 0.329631 0.316592 0.298957 0.316592 0.329631 0.238549 0.280217 0.26257 0.322619 0.300151 0.280217 0.282644 0.26257 0.300151 0.280217 0.300151 0.26257 0.406236 0.376458 0.364864 0.351066 0.338357 0.376458 0.322619 0.364864 0.338357 0.376458 0.338357 0.364864 0.282644 0.300151 0.316592 0.322619 0.338357 0.300151 0.351066 0.316592 0.338357 0.300151 0.338357 0.316592 0.0898632 0.158281 0.1367 0.226501 0.196112 0.158281 0.176451 0.1367 0.196112 0.158281 0.196112 0.1367 0.356934 0.314709 0.293168 0.281628 0.255899 0.314709 0.226501 0.293168 0.255899 0.314709 0.255899 0.293168 0.238549 0.210009 0.256494 0.176451 0.228757 0.210009 0.281628 0.256494 0.228757 0.210009 0.228757 0.256494 0.226501 0.255899 0.196112 0.281628 0.228757 0.255899 0.176451 0.196112 0.228757 0.255899 0.228757 0.196112 0.406236 0.364864 0.396478 0.322619 0.350641 0.364864 0.384913 0.396478 0.350641 0.364864 0.350641 0.396478 0.238549 0.256494 0.280217 0.281628 0.303684 0.256494 0.322619 0.280217 0.303684 0.256494 0.303684 0.280217 0.356934 0.371508 0.314709 0.384913 0.333991 0.371508 0.281628 0.314709 0.333991 0.371508 0.333991 0.314709 0.322619 0.303684 0.350641 0.281628 0.333991 0.303684 0.384913 0.350641 0.333991 0.303684 0.333991 0.350641 0.240889 0.237697 0.236271 0.235252 0.236049 0.237697 0.23382 0.236271 0.236049 0.237697 0.236049 0.236271 0.231458 0.235778 0.233279 0.238183 0.235808 0.235778 0.235252 0.233279 0.235808 0.235778 0.235808 0.233279 0.23648 0.233748 0.23869 0.23382 0.236231 0.233748 0.238183 0.23869 0.236231 0.233748 0.236231 0.23869 0.235252 0.235808 0.236049 0.238183 0.236231 0.235808 0.23382 0.236049 0.236231 0.235808 0.236231 0.236049 0.222741 0.231677 0.225363 0.240167 0.233412 0.231677 0.227629 0.225363 0.233412 0.231677 0.233412 0.225363 0.25539 0.247323 0.248146 0.240644 0.24083 0.247323 0.240167 0.248146 0.24083 0.247323 0.24083 0.248146 0.231458 0.22964 0.235356 0.227629 0.234668 0.22964 0.240644 0.235356 0.234668 0.22964 0.234668 0.235356 0.240167 0.24083 0.233412 0.240644 0.234668 0.24083 0.227629 0.233412 0.234668 0.24083 0.234668 0.233412 0.27643 0.262235 0.272702 0.25072 0.260608 0.262235 0.267666 0.272702 0.260608 0.262235 0.260608 0.272702 0.23648 0.243505 0.24207 0.248849 0.250822 0.243505 0.25072 0.24207 0.250822 0.243505 0.250822 0.24207 0.25539 0.261995 0.252927 0.267666 0.257253 0.261995 0.248849 0.252927 0.257253 0.261995 0.257253 0.252927 0.25072 0.250822 0.260608 0.248849 0.257253 0.250822 0.267666 0.260608 0.257253 0.250822 0.257253 0.260608 0.231458 0.235356 0.235778 0.240644 0.239798 0.235356 0.238183 0.235778 0.239798 0.235356 0.239798 0.235778 0.25539 0.252927 0.247323 0.248849 0.245522 0.252927 0.240644 0.247323 0.245522 0.252927 0.245522 0.247323 0.23648 0.23869 0.243505 0.238183 0.242484 0.23869 0.248849 0.243505 0.242484 0.23869 0.242484 0.243505 0.240644 0.245522 0.239798 0.248849 0.242484 0.245522 0.238183 0.239798 0.242484 0.245522 0.242484 0.239798 0.311746 0.294614 0.28327 0.280689 0.26986 0.294614 0.255515 0.28327 0.26986 0.294614 0.26986 0.28327 0.260672 0.252047 0.269506 0.240181 0.259675 0.252047 0.280689 0.269506 0.259675 0.252047 0.259675 0.269506 0.20549 0.22936 0.22476 0.255515 0.24636 0.22936 0.240181 0.22476 0.24636 0.22936 0.24636 0.22476 0.280689 0.259675 0.26986 0.240181 0.24636 0.259675 0.255515 0.26986 0.24636 0.259675 0.24636 0.26986 0.240889 0.238287 0.244174 0.233568 0.240044 0.238287 0.248363 0.244174 0.240044 0.238287 0.240044 0.244174 0.216923 0.224278 0.226518 0.234266 0.233483 0.224278 0.233568 0.226518 0.233483 0.224278 0.233483 0.226518 0.260672 0.253745 0.246548 0.248363 0.242676 0.253745 0.234266 0.246548 0.242676 0.253745 0.242676 0.246548 0.233568 0.233483 0.240044 0.234266 0.242676 0.233483 0.248363 0.240044 0.242676 0.233483 0.242676 0.240044 0.146283 0.154487 0.169611 0.167441 0.177729 0.154487 0.188878 0.169611 0.177729 0.154487 0.177729 0.169611 0.20549 0.205761 0.184649 0.208228 0.189909 0.205761 0.167441 0.184649 0.189909 0.205761 0.189909 0.184649 0.216923 0.204466 0.212149 0.188878 0.196775 0.204466 0.208228 0.212149 0.196775 0.204466 0.196775 0.212149 0.167441 0.189909 0.177729 0.208228 0.196775 0.189909 0.188878 0.177729 0.196775 0.189909 0.196775 0.177729 0.260672 0.246548 0.252047 0.234266 0.236331 0.246548 0.240181 0.252047 0.236331 0.246548 0.236331 0.252047 0.216923 0.212149 0.224278 0.208228 0.222879 0.212149 0.234266 0.224278 0.222879 0.212149 0.222879 0.224278 0.20549 0.22476 0.205761 0.240181 0.222855 0.22476 0.208228 0.205761 0.222855 0.22476 0.222855 0.205761 0.234266 0.222879 0.236331 0.208228 0.222855 0.222879 0.240181 0.236331 0.222855 0.222879 0.222855 0.236331 0.0898632 0.1367 0.0731975 0.176451 0.121156 0.1367 0.0673351 0.0731975 0.121156 0.1367 0.121156 0.0731975 0.238549 0.195019 0.210009 0.153021 0.161115 0.195019 0.176451 0.210009 0.161115 0.195019 0.161115 0.210009 0.0789408 0.0699041 0.113997 0.0673351 0.113905 0.0699041 0.153021 0.113997 0.113905 0.0699041 0.113905 0.113997 0.176451 0.161115 0.121156 0.153021 0.113905 0.161115 0.0673351 0.121156 0.113905 0.161115 0.113905 0.121156 0.311746 0.28327 0.298957 0.255515 0.267251 0.28327 0.282644 0.298957 0.267251 0.28327 0.267251 0.298957 0.20549 0.207809 0.22936 0.21352 0.236548 0.207809 0.255515 0.22936 0.236548 0.207809 0.236548 0.22936 0.238549 0.26257 0.22351 0.282644 0.247448 0.26257 0.21352 0.22351 0.247448 0.26257 0.247448 0.22351 0.255515 0.236548 0.267251 0.21352 0.247448 0.236548 0.282644 0.267251 0.247448 0.236548 0.247448 0.267251 0.146283 0.12743 0.154487 0.10916 0.140835 0.12743 0.167441 0.154487 0.140835 0.12743 0.140835 0.154487 0.0789408 0.119367 0.0925517 0.153301 0.128795 0.119367 0.10916 0.0925517 0.128795 0.119367 0.128795 0.0925517 0.20549 0.184649 0.181744 0.167441 0.15918 0.184649 0.153301 0.181744 0.15918 0.184649 0.15918 0.181744 0.10916 0.128795 0.140835 0.153301 0.15918 0.128795 0.167441 0.140835 0.15918 0.128795 0.15918 0.140835 0.238549 0.22351 0.195019 0.21352 0.185887 0.22351 0.153021 0.195019 0.185887 0.22351 0.185887 0.195019 0.20549 0.181744 0.207809 0.153301 0.181878 0.181744 0.21352 0.207809 0.181878 0.181744 0.181878 0.207809 0.0789408 0.113997 0.119367 0.153021 0.150848 0.113997 0.153301 0.119367 0.150848 0.113997 0.150848 0.119367 0.21352 0.181878 0.185887 0.153301 0.150848 0.181878 0.153021 0.185887 0.150848 0.181878 0.150848 0.185887 0.240889 0.236271 0.238287 0.23382 0.232907 0.236271 0.233568 0.238287 0.232907 0.236271 0.232907 0.238287 0.23648 0.230267 0.233748 0.224674 0.230191 0.230267 0.23382 0.233748 0.230191 0.230267 0.230191 0.233748 0.216923 0.226518 0.219933 0.233568 0.22753 0.226518 0.224674 0.219933 0.22753 0.226518 0.22753 0.219933 0.23382 0.230191 0.232907 0.224674 0.22753 0.230191 0.233568 0.232907 0.22753 0.230191 0.22753 0.232907 0.27643 0.263807 0.262235 0.249209 0.250347 0.263807 0.25072 0.262235 0.250347 0.263807 0.250347 0.262235 0.215655 0.223253 0.233111 0.22925 0.237165 0.223253 0.249209 0.233111 0.237165 0.223253 0.237165 0.233111 0.23648 0.24207 0.233593 0.25072 0.240271 0.24207 0.22925 0.233593 0.240271 0.24207 0.240271 0.233593 0.249209 0.237165 0.250347 0.22925 0.240271 0.237165 0.25072 0.250347 0.240271 0.237165 0.240271 0.250347 0.146283 0.169611 0.162035 0.188878 0.181014 0.169611 0.179361 0.162035 0.181014 0.169611 0.181014 0.162035 0.216923 0.20984 0.204466 0.207157 0.19708 0.20984 0.188878 0.204466 0.19708 0.20984 0.19708 0.204466 0.215655 0.197634 0.208733 0.179361 0.194626 0.197634 0.207157 0.208733 0.194626 0.197634 0.194626 0.208733 0.188878 0.19708 0.181014 0.207157 0.194626 0.19708 0.179361 0.181014 0.194626 0.19708 0.194626 0.181014 0.23648 0.233593 0.230267 0.22925 0.225045 0.233593 0.224674 0.230267 0.225045 0.233593 0.225045 0.230267 0.215655 0.208733 0.223253 0.207157 0.218015 0.208733 0.22925 0.223253 0.218015 0.208733 0.218015 0.223253 0.216923 0.219933 0.20984 0.224674 0.217052 0.219933 0.207157 0.20984 0.217052 0.219933 0.217052 0.20984 0.22925 0.218015 0.225045 0.207157 0.217052 0.218015 0.224674 0.225045 0.217052 0.218015 0.217052 0.225045 </DataArray>