<?xml version="1.0" encoding="UTF-8"?>
<VTKFile type="UnstructuredGrid" version="0.1" byte_order="LittleEndian" compressor="vtkZLibDataCompressor">
    <UnstructuredGrid>
        <Piece NumberOfPoints="1920" NumberOfCells="640">
            <Points>
                <DataArray type="Float64" Name="Array" NumberOfComponents="3" format="ascii" RangeMin="0" RangeMax="14.830077156661799">4.11704 0 0 4.63094 0 0 4.44215 0.417845 0 5.14485 0 0 4.95605 0.417845 0 4.63094 0 0 4.76726 0.835691 0 4.44215 0.417845 0 4.95605 0.417845 0 4.63094 0 0 4.95605 0.417845 0 4.44215 0.417845 0 6.17266 0 0 5.98386 0.417845 0 5.65875 0 0 5.79507 0.835691 0 5.46996 0.417845 0 5.98386 0.417845 0 5.14485 0 0 5.65875 0 0 5.46996 0.417845 0 5.98386 0.417845 0 5.46996 0.417845 0 5.65875 0 0 5.41748 1.67138 0 5.09237 1.25354 0 5.60628 1.25354 0 4.76726 0.835691 0 5.28116 0.835691 0 5.09237 1.25354 0 5.79507 0.835691 0 5.60628 1.25354 0 5.28116 0.835691 0 5.09237 1.25354 0 5.28116 0.835691 0 5.60628 1.25354 0 5.14485 0 0 5.46996 0.417845 0 4.95605 0.417845 0 5.79507 0.835691 0 5.28116 0.835691 0 5.46996 0.417845 0 4.76726 0.835691 0 4.95605 0.417845 0 5.28116 0.835691 0 5.46996 0.417845 0 5.28116 0.835691 0 4.95605 0.417845 0 8.22827 0 0 8.03948 0.417845 0 7.71437 0 0 7.85068 0.835691 0 7.52557 0.417845 0 8.03948 0.417845 0 7.20046 0 0 7.71437 0 0 7.52557 0.417845 0 8.03948 0.417845 0 7.52557 0.417845 0 7.71437 0 0 7.4731 1.67138 0 7.14799 1.25354 0 7.66189 1.25354 0 6.82288 0.835691 0 7.33678 0.835691 0 7.14799 1.25354 0 7.85068 0.835691 0 7.66189 1.25354 0 7.33678 0.835691 0 7.14799 1.25354 0 7.33678 0.835691 0 7.66189 1.25354 0 6.17266 0 0 6.68656 0 0 6.49777 0.417845 0 7.20046 0 0 7.01167 0.417845 0 6.68656 0 0 6.82288 0.835691 0 6.49777 0.417845 0 7.01167 0.417845 0 6.68656 0 0 7.01167 0.417845 0 6.49777 0.417845 0 7.85068 0.835691 0 7.33678 0.835691 0 7.52557 0.417845 0 6.82288 0.835691 0 7.01167 0.417845 0 7.33678 0.835691 0 7.20046 0 0 7.52557 0.417845 0 7.01167 0.417845 0 7.33678 0.835691 0 7.01167 0.417845 0 7.52557 0.417845 0 6.71792 3.34276 0 6.39281 2.92492 0 6.90672 2.92492 0 6.0677 2.50707 0 6.58161 2.50707 0 6.39281 2.92492 0 7.09551 2.50707 0 6.90672 2.92492 0 6.58161 2.50707 0 6.39281 2.92492 0 6.58161 2.50707 0 6.90672 2.92492 0 5.41748 1.67138 0 5.93139 1.67138 0 5.74259 2.08923 0 6.44529 1.67138 0 6.2565 2.08923 0 5.93139 1.67138 0 6.0677 2.50707 0 5.74259 2.08923 0 6.2565 2.08923 0 5.93139 1.67138 0 6.2565 2.08923 0 5.74259 2.08923 0 7.4731 1.67138 0 7.2843 2.08923 0 6.95919 1.67138 0 7.09551 2.50707 0 6.7704 2.08923 0 7.2843 2.08923 0 6.44529 1.67138 0 6.95919 1.67138 0 6.7704 2.08923 0 7.2843 2.08923 0 6.7704 2.08923 0 6.95919 1.67138 0 6.0677 2.50707 0 6.2565 2.08923 0 6.58161 2.50707 0 6.44529 1.67138 0 6.7704 2.08923 0 6.2565 2.08923 0 7.09551 2.50707 0 6.58161 2.50707 0 6.7704 2.08923 0 6.2565 2.08923 0 6.7704 2.08923 0 6.58161 2.50707 0 6.17266 0 0 6.49777 0.417845 0 5.98386 0.417845 0 6.82288 0.835691 0 6.30897 0.835691 0 6.49777 0.417845 0 5.79507 0.835691 0 5.98386 0.417845 0 6.30897 0.835691 0 6.49777 0.417845 0 6.30897 0.835691 0 5.98386 0.417845 0 7.4731 1.67138 0 6.95919 1.67138 0 7.14799 1.25354 0 6.44529 1.67138 0 6.63408 1.25354 0 6.95919 1.67138 0 6.82288 0.835691 0 7.14799 1.25354 0 6.63408 1.25354 0 6.95919 1.67138 0 6.63408 1.25354 0 7.14799 1.25354 0 5.41748 1.67138 0 5.60628 1.25354 0 5.93139 1.67138 0 5.79507 0.835691 0 6.12018 1.25354 0 5.60628 1.25354 0 6.44529 1.67138 0 5.93139 1.67138 0 6.12018 1.25354 0 5.60628 1.25354 0 6.12018 1.25354 0 5.93139 1.67138 0 6.82288 0.835691 0 6.63408 1.25354 0 6.30897 0.835691 0 6.44529 1.67138 0 6.12018 1.25354 0 6.63408 1.25354 0 5.79507 0.835691 0 6.30897 0.835691 0 6.12018 1.25354 0 6.63408 1.25354 0 6.12018 1.25354 0 6.30897 0.835691 0 8.22827 0 0 8.67799 0 0 8.44942 0.419156 0 9.12772 0 0 8.89915 0.419156 0 8.67799 0 0 8.67058 0.838311 0 8.44942 0.419156 0 8.89915 0.419156 0 8.67799 0 0 8.89915 0.419156 0 8.44942 0.419156 0 10.0272 0 0 9.79859 0.419156 0 9.57744 0 0 9.57002 0.838311 0 9.34887 0.419156 0 9.79859 0.419156 0 9.12772 0 0 9.57744 0 0 9.34887 0.419156 0 9.79859 0.419156 0 9.34887 0.419156 0 9.57744 0 0 9.11288 1.67662 0 8.89173 1.25747 0 9.34145 1.25747 0 8.67058 0.838311 0 9.1203 0.838311 0 8.89173 1.25747 0 9.57002 0.838311 0 9.34145 1.25747 0 9.1203 0.838311 0 8.89173 1.25747 0 9.1203 0.838311 0 9.34145 1.25747 0 9.12772 0 0 9.34887 0.419156 0 8.89915 0.419156 0 9.57002 0.838311 0 9.1203 0.838311 0 9.34887 0.419156 0 8.67058 0.838311 0 8.89915 0.419156 0 9.1203 0.838311 0 9.34887 0.419156 0 9.1203 0.838311 0 8.89915 0.419156 0 11.8261 0 0 11.5975 0.419156 0 11.3763 0 0 11.3689 0.838311 0 11.1478 0.419156 0 11.5975 0.419156 0 10.9266 0 0 11.3763 0 0 11.1478 0.419156 0 11.5975 0.419156 0 11.1478 0.419156 0 11.3763 0 0 10.9118 1.67662 0 10.6906 1.25747 0 11.1403 1.25747 0 10.4695 0.838311 0 10.9192 0.838311 0 10.6906 1.25747 0 11.3689 0.838311 0 11.1403 1.25747 0 10.9192 0.838311 0 10.6906 1.25747 0 10.9192 0.838311 0 11.1403 1.25747 0 10.0272 0 0 10.4769 0 0 10.2483 0.419156 0 10.9266 0 0 10.698 0.419156 0 10.4769 0 0 10.4695 0.838311 0 10.2483 0.419156 0 10.698 0.419156 0 10.4769 0 0 10.698 0.419156 0 10.2483 0.419156 0 11.3689 0.838311 0 10.9192 0.838311 0 11.1478 0.419156 0 10.4695 0.838311 0 10.698 0.419156 0 10.9192 0.838311 0 10.9266 0 0 11.1478 0.419156 0 10.698 0.419156 0 10.9192 0.838311 0 10.698 0.419156 0 11.1478 0.419156 0 9.9975 3.35324 0 9.77634 2.93409 0 10.2261 2.93409 0 9.55519 2.51493 0 10.0049 2.51493 0 9.77634 2.93409 0 10.4546 2.51493 0 10.2261 2.93409 0 10.0049 2.51493 0 9.77634 2.93409 0 10.0049 2.51493 0 10.2261 2.93409 0 9.11288 1.67662 0 9.56261 1.67662 0 9.33404 2.09578 0 10.0123 1.67662 0 9.78376 2.09578 0 9.56261 1.67662 0 9.55519 2.51493 0 9.33404 2.09578 0 9.78376 2.09578 0 9.56261 1.67662 0 9.78376 2.09578 0 9.33404 2.09578 0 10.9118 1.67662 0 10.6832 2.09578 0 10.4621 1.67662 0 10.4546 2.51493 0 10.2335 2.09578 0 10.6832 2.09578 0 10.0123 1.67662 0 10.4621 1.67662 0 10.2335 2.09578 0 10.6832 2.09578 0 10.2335 2.09578 0 10.4621 1.67662 0 9.55519 2.51493 0 9.78376 2.09578 0 10.0049 2.51493 0 10.0123 1.67662 0 10.2335 2.09578 0 9.78376 2.09578 0 10.4546 2.51493 0 10.0049 2.51493 0 10.2335 2.09578 0 9.78376 2.09578 0 10.2335 2.09578 0 10.0049 2.51493 0 10.0272 0 0 10.2483 0.419156 0 9.79859 0.419156 0 10.4695 0.838311 0 10.0197 0.838311 0 10.2483 0.419156 0 9.57002 0.838311 0 9.79859 0.419156 0 10.0197 0.838311 0 10.2483 0.419156 0 10.0197 0.838311 0 9.79859 0.419156 0 10.9118 1.67662 0 10.4621 1.67662 0 10.6906 1.25747 0 10.0123 1.67662 0 10.2409 1.25747 0 10.4621 1.67662 0 10.4695 0.838311 0 10.6906 1.25747 0 10.2409 1.25747 0 10.4621 1.67662 0 10.2409 1.25747 0 10.6906 1.25747 0 9.11288 1.67662 0 9.34145 1.25747 0 9.56261 1.67662 0 9.57002 0.838311 0 9.79118 1.25747 0 9.34145 1.25747 0 10.0123 1.67662 0 9.56261 1.67662 0 9.79118 1.25747 0 9.34145 1.25747 0 9.79118 1.25747 0 9.56261 1.67662 0 10.4695 0.838311 0 10.2409 1.25747 0 10.0197 0.838311 0 10.0123 1.67662 0 9.79118 1.25747 0 10.2409 1.25747 0 9.57002 0.838311 0 10.0197 0.838311 0 9.79118 1.25747 0 10.2409 1.25747 0 9.79118 1.25747 0 10.0197 0.838311 0 9.9975 3.35324 0 10.4266 3.25042 0 10.3051 3.52992 0 10.8557 3.14759 0 10.7342 3.42709 0 10.4266 3.25042 0 10.6127 3.7066 0 10.3051 3.52992 0 10.7342 3.42709 0 10.4266 3.25042 0 10.7342 3.42709 0 10.3051 3.52992 0 11.7138 2.94193 0 11.5923 3.22144 0 11.2847 3.04476 0 11.4708 3.50095 0 11.1632 3.32427 0 11.5923 3.22144 0 10.8557 3.14759 0 11.2847 3.04476 0 11.1632 3.32427 0 11.5923 3.22144 0 11.1632 3.32427 0 11.2847 3.04476 0 11.2279 4.05996 0 10.9203 3.88328 0 11.3493 3.78045 0 10.6127 3.7066 0 11.0418 3.60377 0 10.9203 3.88328 0 11.4708 3.50095 0 11.3493 3.78045 0 11.0418 3.60377 0 10.9203 3.88328 0 11.0418 3.60377 0 11.3493 3.78045 0 10.8557 3.14759 0 11.1632 3.32427 0 10.7342 3.42709 0 11.4708 3.50095 0 11.0418 3.60377 0 11.1632 3.32427 0 10.6127 3.7066 0 10.7342 3.42709 0 11.0418 3.60377 0 11.1632 3.32427 0 11.0418 3.60377 0 10.7342 3.42709 0 13.4301 2.53062 0 13.3086 2.81012 0 13.001 2.63345 0 13.1871 3.08963 0 12.8796 2.91295 0 13.3086 2.81012 0 12.572 2.73627 0 13.001 2.63345 0 12.8796 2.91295 0 13.3086 2.81012 0 12.8796 2.91295 0 13.001 2.63345 0 12.9442 3.64865 0 12.6366 3.47197 0 13.0657 3.36914 0 12.329 3.29529 0 12.7581 3.19246 0 12.6366 3.47197 0 13.1871 3.08963 0 13.0657 3.36914 0 12.7581 3.19246 0 12.6366 3.47197 0 12.7581 3.19246 0 13.0657 3.36914 0 11.7138 2.94193 0 12.1429 2.8391 0 12.0214 3.11861 0 12.572 2.73627 0 12.4505 3.01578 0 12.1429 2.8391 0 12.329 3.29529 0 12.0214 3.11861 0 12.4505 3.01578 0 12.1429 2.8391 0 12.4505 3.01578 0 12.0214 3.11861 0 13.1871 3.08963 0 12.7581 3.19246 0 12.8796 2.91295 0 12.329 3.29529 0 12.4505 3.01578 0 12.7581 3.19246 0 12.572 2.73627 0 12.8796 2.91295 0 12.4505 3.01578 0 12.7581 3.19246 0 12.4505 3.01578 0 12.8796 2.91295 0 12.4582 4.76667 0 12.1506 4.59 0 12.5797 4.48717 0 11.843 4.41332 0 12.2721 4.31049 0 12.1506 4.59 0 12.7012 4.20766 0 12.5797 4.48717 0 12.2721 4.31049 0 12.1506 4.59 0 12.2721 4.31049 0 12.5797 4.48717 0 11.2279 4.05996 0 11.6569 3.95713 0 11.5355 4.23664 0 12.086 3.8543 0 11.9645 4.13381 0 11.6569 3.95713 0 11.843 4.41332 0 11.5355 4.23664 0 11.9645 4.13381 0 11.6569 3.95713 0 11.9645 4.13381 0 11.5355 4.23664 0 12.9442 3.64865 0 12.8227 3.92815 0 12.5151 3.75147 0 12.7012 4.20766 0 12.3936 4.03098 0 12.8227 3.92815 0 12.086 3.8543 0 12.5151 3.75147 0 12.3936 4.03098 0 12.8227 3.92815 0 12.3936 4.03098 0 12.5151 3.75147 0 11.843 4.41332 0 11.9645 4.13381 0 12.2721 4.31049 0 12.086 3.8543 0 12.3936 4.03098 0 11.9645 4.13381 0 12.7012 4.20766 0 12.2721 4.31049 0 12.3936 4.03098 0 11.9645 4.13381 0 12.3936 4.03098 0 12.2721 4.31049 0 11.7138 2.94193 0 12.0214 3.11861 0 11.5923 3.22144 0 12.329 3.29529 0 11.8999 3.39812 0 12.0214 3.11861 0 11.4708 3.50095 0 11.5923 3.22144 0 11.8999 3.39812 0 12.0214 3.11861 0 11.8999 3.39812 0 11.5923 3.22144 0 12.9442 3.64865 0 12.5151 3.75147 0 12.6366 3.47197 0 12.086 3.8543 0 12.2075 3.574
[...]
            <PointData>
                <DataArray Name="p" type="Float64" format="ascii">1.62869 1.58103 1.6073 1.54513 1.5715 1.58103 1.60088 1.6073 1.5715 1.58103 1.5715 1.6073 1.48114 1.50128 1.51323 1.52513 1.5351 1.50128 1.54513 1.51323 1.5351 1.50128 1.5351 1.51323 1.58956 1.59369 1.55446 1.60088 1.55962 1.59369 1.52513 1.55446 1.55962 1.59369 1.55962 1.55446 1.54513 1.5351 1.5715 1.52513 1.55962 1.5351 1.60088 1.5715 1.55962 1.5351 1.55962 1.5715 1.3569 1.37274 1.38853 1.3916 1.40502 1.37274 1.41951 1.38853 1.40502 1.37274 1.40502 1.38853 1.44693 1.44972 1.4163 1.45725 1.42436 1.44972 1.3916 1.4163 1.42436 1.44972 1.42436 1.4163 1.48114 1.45026 1.46885 1.41951 1.43681 1.45026 1.45725 1.46885 1.43681 1.45026 1.43681 1.46885 1.3916 1.42436 1.40502 1.45725 1.43681 1.42436 1.41951 1.40502 1.43681 1.42436 1.43681 1.40502 1.56784 1.57274 1.54068 1.57847 1.54398 1.57274 1.51146 1.54068 1.54398 1.57274 1.54398 1.54068 1.58956 1.55045 1.5845 1.5154 1.54743 1.55045 1.57847 1.5845 1.54743 1.55045 1.54743 1.5845 1.44693 1.47949 1.48038 1.51146 1.51325 1.47949 1.5154 1.48038 1.51325 1.47949 1.51325 1.48038 1.57847 1.54743 1.54398 1.5154 1.51325 1.54743 1.51146 1.54398 1.51325 1.54743 1.51325 1.54398 1.48114 1.46885 1.50128 1.45725 1.49009 1.46885 1.52513 1.50128 1.49009 1.46885 1.49009 1.50128 1.44693 1.48038 1.44972 1.5154 1.48357 1.48038 1.45725 1.44972 1.48357 1.48038 1.48357 1.44972 1.58956 1.55446 1.55045 1.52513 1.51806 1.55446 1.5154 1.55045 1.51806 1.55446 1.51806 1.55045 1.45725 1.48357 1.49009 1.5154 1.51806 1.48357 1.52513 1.49009 1.51806 1.48357 1.51806 1.49009 1.3569 1.3284 1.3465 1.29893 1.31691 1.3284 1.33801 1.3465 1.31691 1.3284 1.31691 1.3465 1.23598 1.25421 1.26818 1.27564 1.28622 1.25421 1.29893 1.26818 1.28622 1.25421 1.28622 1.26818 1.33716 1.33459 1.30307 1.33801 1.30741 1.33459 1.27564 1.30307 1.30741 1.33459 1.30741 1.30307 1.29893 1.28622 1.31691 1.27564 1.30741 1.28622 1.33801 1.31691 1.30741 1.28622 1.30741 1.31691 1.08868 1.10901 1.12857 1.13229 1.14822 1.10901 1.16635 1.12857 1.14822 1.10901 1.14822 1.12857 1.1977 1.19962 1.16129 1.20764 1.17097 1.19962 1.13229 1.16129 1.17097 1.19962 1.17097 1.16129 1.23598 1.2021 1.22067 1.16635 1.1854 1.2021 1.20764 1.22067 1.1854 1.2021 1.1854 1.22067 1.13229 1.17097 1.14822 1.20764 1.1854 1.17097 1.16635 1.14822 1.1854 1.17097 1.1854 1.14822 1.3789 1.3653 1.33328 1.35387 1.32145 1.3653 1.28654 1.33328 1.32145 1.3653 1.32145 1.33328 1.33716 1.30495 1.34418 1.27121 1.31171 1.30495 1.35387 1.34418 1.31171 1.30495 1.31171 1.34418 1.1977 1.24046 1.23558 1.28654 1.27724 1.24046 1.27121 1.23558 1.27724 1.24046 1.27724 1.23558 1.35387 1.31171 1.32145 1.27121 1.27724 1.31171 1.28654 1.32145 1.27724 1.31171 1.27724 1.32145 1.23598 1.22067 1.25421 1.20764 1.24246 1.22067 1.27564 1.25421 1.24246 1.22067 1.24246 1.25421 1.1977 1.23558 1.19962 1.27121 1.23587 1.23558 1.20764 1.19962 1.23587 1.23558 1.23587 1.19962 1.33716 1.30307 1.30495 1.27564 1.27027 1.30307 1.27121 1.30495 1.27027 1.30307 1.27027 1.30495 1.20764 1.23587 1.24246 1.27121 1.27027 1.23587 1.27564 1.24246 1.27027 1.23587 1.27027 1.24246 1.3789 1.34121 1.37082 1.29934 1.33155 1.34121 1.36327 1.37082 1.33155 1.34121 1.33155 1.37082 1.20127 1.23658 1.2528 1.27283 1.28673 1.23658 1.29934 1.2528 1.28673 1.23658 1.28673 1.2528 1.34794 1.35556 1.31036 1.36327 1.32123 1.35556 1.27283 1.31036 1.32123 1.35556 1.32123 1.31036 1.29934 1.28673 1.33155 1.27283 1.32123 1.28673 1.36327 1.33155 1.32123 1.28673 1.32123 1.33155 0.953734 0.982373 1.01986 1.01456 1.05225 0.982373 1.08405 1.01986 1.05225 0.982373 1.05225 1.01986 1.09208 1.127 1.05112 1.15594 1.08777 1.127 1.01456 1.05112 1.08777 1.127 1.08777 1.05112 1.20127 1.14486 1.18044 1.08405 1.11876 1.14486 1.15594 1.18044 1.11876 1.14486 1.11876 1.18044 1.01456 1.08777 1.05225 1.15594 1.11876 1.08777 1.08405 1.05225 1.11876 1.08777 1.11876 1.05225 1.30501 1.31938 1.2453 1.33052 1.26695 1.31938 1.18874 1.2453 1.26695 1.31938 1.26695 1.2453 1.34794 1.29813 1.33969 1.23867 1.28407 1.29813 1.33052 1.33969 1.28407 1.29813 1.28407 1.33969 1.09208 1.13805 1.16996 1.18874 1.21644 1.13805 1.23867 1.16996 1.21644 1.13805 1.21644 1.16996 1.33052 1.28407 1.26695 1.23867 1.21644 1.28407 1.18874 1.26695 1.21644 1.28407 1.21644 1.26695 1.20127 1.18044 1.23658 1.15594 1.21783 1.18044 1.27283 1.23658 1.21783 1.18044 1.21783 1.23658 1.09208 1.16996 1.127 1.23867 1.19608 1.16996 1.15594 1.127 1.19608 1.16996 1.19608 1.127 1.34794 1.31036 1.29813 1.27283 1.25705 1.31036 1.23867 1.29813 1.25705 1.31036 1.25705 1.29813 1.15594 1.19608 1.21783 1.23867 1.25705 1.19608 1.27283 1.21783 1.25705 1.19608 1.25705 1.21783 1.63614 1.62265 1.62783 1.60501 1.61389 1.62265 1.62123 1.62783 1.61389 1.62265 1.61389 1.62783 1.55434 1.57052 1.58265 1.58605 1.59517 1.57052 1.60501 1.58265 1.59517 1.57052 1.59517 1.58265 1.61339 1.61628 1.6006 1.62123 1.60655 1.61628 1.58605 1.6006 1.60655 1.61628 1.60655 1.6006 1.60501 1.59517 1.61389 1.58605 1.60655 1.59517 1.62123 1.61389 1.60655 1.59517 1.60655 1.61389 1.3789 1.40267 1.43149 1.42809 1.45476 1.40267 1.47865 1.43149 1.45476 1.40267 1.45476 1.43149 1.4856 1.50554 1.45573 1.52303 1.47939 1.50554 1.42809 1.45573 1.47939 1.50554 1.47939 1.45573 1.55434 1.51979 1.53916 1.47865 1.50049 1.51979 1.52303 1.53916 1.50049 1.51979 1.50049 1.53916 1.42809 1.47939 1.45476 1.52303 1.50049 1.47939 1.47865 1.45476 1.50049 1.47939 1.50049 1.45476 1.62192 1.61719 1.58715 1.61387 1.58983 1.61719 1.55178 1.58715 1.58983 1.61719 1.58983 1.58715 1.61339 1.59596 1.61255 1.5696 1.59253 1.59596 1.61387 1.61255 1.59253 1.59596 1.59253 1.61255 1.4856 1.51774 1.53296 1.55178 1.56129 1.51774 1.5696 1.53296 1.56129 1.51774 1.56129 1.53296 1.61387 1.59253 1.58983 1.5696 1.56129 1.59253 1.55178 1.58983 1.56129 1.59253 1.56129 1.58983 1.55434 1.53916 1.57052 1.52303 1.55853 1.53916 1.58605 1.57052 1.55853 1.53916 1.55853 1.57052 1.4856 1.53296 1.50554 1.5696 1.54625 1.53296 1.52303 1.50554 1.54625 1.53296 1.54625 1.50554 1.61339 1.6006 1.59596 1.58605 1.57767 1.6006 1.5696 1.59596 1.57767 1.6006 1.57767 1.59596 1.52303 1.54625 1.55853 1.5696 1.57767 1.54625 1.58605 1.55853 1.57767 1.54625 1.57767 1.55853 1.63614 1.62783 1.63361 1.62123 1.62692 1.62783 1.63185 1.63361 1.62692 1.62783 1.62692 1.63361 1.61339 1.62051 1.61628 1.62591 1.62274 1.62051 1.62123 1.61628 1.62274 1.62051 1.62274 1.61628 1.63087 1.631 1.62892 1.63185 1.62747 1.631 1.62591 1.62892 1.62747 1.631 1.62747 1.62892 1.62123 1.62274 1.62692 1.62591 1.62747 1.62274 1.63185 1.62692 1.62747 1.62274 1.62747 1.62692 1.62192 1.63889 1.61719 1.65106 1.63003 1.63889 1.61387 1.61719 1.63003 1.63889 1.63003 1.61719 1.65935 1.64397 1.6575 1.63127 1.63915 1.64397 1.65106 1.6575 1.63915 1.64397 1.63915 1.6575 1.61339 1.61255 1.62093 1.61387 1.624 1.61255 1.63127 1.62093 1.624 1.61255 1.624 1.62093 1.65106 1.63915 1.63003 1.63127 1.624 1.63915 1.61387 1.63003 1.624 1.63915 1.624 1.63003 1.63474 1.63373 1.64358 1.63247 1.63906 1.63373 1.65182 1.64358 1.63906 1.63373 1.63906 1.64358 1.63087 1.63148 1.63144 1.63634 1.6349 1.63148 1.63247 1.63144 1.6349 1.63148 1.6349 1.63144 1.65935 1.65702 1.64516 1.65182 1.64353 1.65702 1.63634 1.64516 1.64353 1.65702 1.64353 1.64516 1.63247 1.6349 1.63906 1.63634 1.64353 1.6349 1.65182 1.63906 1.64353 1.6349 1.64353 1.63906 1.61339 1.62093 1.62051 1.63127 1.62693 1.62093 1.62591 1.62051 1.62693 1.62093 1.62693 1.62051 1.65935 1.64516 1.64397 1.63634 1.63507 1.64516 1.63127 1.64397 1.63507 1.64516 1.63507 1.64397 1.63087 1.62892 1.63148 1.62591 1.63043 1.62892 1.63634 1.63148 1.63043 1.62892 1.63043 1.63148 1.63127 1.63507 1.62693 1.63634 1.63043 1.63507 1.62591 1.62693 1.63043 1.63507 1.63043 1.62693 1.62192 1.58715 1.60829 1.55178 1.56676 1.58715 1.5897 1.60829 1.56676 1.58715 1.56676 1.60829 1.4856 1.49009 1.51774 1.49905 1.52721 1.49009 1.55178 1.51774 1.52721 1.49009 1.52721 1.51774 1.52818 1.56274 1.51097 1.5897 1.54271 1.56274 1.49905 1.51097 1.54271 1.56274 1.54271 1.51097 1.55178 1.52721 1.56676 1.49905 1.54271 1.52721 1.5897 1.56676 1.54271 1.52721 1.54271 1.56676 1.3789 1.37082 1.40267 1.36327 1.39652 1.37082 1.42809 1.40267 1.39652 1.37082 1.39652 1.40267 1.34794 1.38731 1.35556 1.42377 1.39189 1.38731 1.36327 1.35556 1.39189 1.38731 1.39189 1.35556 1.4856 1.45573 1.45596 1.42809 1.42486 1.45573 1.42377 1.45596 1.42486 1.45573 1.42486 1.45596 1.36327 1.39189 1.39652 1.42377 1.42486 1.39189 1.42809 1.39652 1.42486 1.39189 1.42486 1.39652 1.30501 1.37151 1.31938 1.43197 1.37623 1.37151 1.33052 1.31938 1.37623 1.37151 1.37623 1.31938 1.52818 1.47297 1.48431 1.42501 1.42773 1.47297 1.43197 1.48431 1.42773 1.47297 1.42773 1.48431 1.34794 1.33969 1.38362 1.33052 1.37994 1.33969 1.42501 1.38362 1.37994 1.33969 1.37994 1.38362 1.43197 1.42773 1.37623 1.42501 1.37994 1.42773 1.33052 1.37623 1.37994 1.42773 1.37994 1.37623 1.4856 1.45596 1.49009 1.42377 1.45942 1.45596 1.49905 1.49009 1.45942 1.45596 1.45942 1.49009 1.34794 1.38362 1.38731 1.42501 1.42348 1.38362 1.42377 1.38731 1.42348 1.38362 1.42348 1.38731 1.52818 1.51097 1.47297 1.49905 1.46456 1.51097 1.42501 1.47297 1.46456 1.51097 1.46456 1.47297 1.42377 1.42348 1.45942 1.42501 1.46456 1.42348 1.49905 1.45942 1.46456 1.42348 1.46456 1.45942 1.62192 1.60829 1.63329 1.5897 1.61982 1.60829 1.64781 1.63329 1.61982 1.60829 1.61982 1.63329 1.52818 1.5678 1.56274 1.60739 1.59793 1.5678 1.5897 1.56274 1.59793 1.5678 1.59793 1.56274 1.68591 1.6652 1.64745 1.64781 1.63222 1.6652 1.60739 1.64745 1.63222 1.6652 1.63222 1.64745 1.5897 1.59793 1.61982 1.60739 1.63222 1.59793 1.64781 1.61982 1.63222 1.59793 1.63222 1.61982 1.30501 1.34715 1.37151 1.39444 1.41612 1.34715 1.43197 1.37151 1.41612 1.34715 1.41612 1.37151 1.50867 1.51868 1.44833 1.52421 1.46473 1.51868 1.39444 1.44833 1.46473 1.51868 1.46473 1.44833 1.52818 1.48431 1.52728 1.43197 1.47672 1.48431 1.52421 1.52728 1.47672 1.48431 1.47672 1.52728 1.39444 1.46473 1.41612 1.52421 1.47672 1.46473 1.43197 1.41612 1.47672 1.46473 1.47672 1.41612 1.80723 1.77102 1.72754 1.73861 1.70551 1.77102 1.64897 1.72754 1.70551 1.77102 1.70551 1.72754 1.68591 1.66474 1.71029 1.62899 1.68427 1.66474 1.73861 1.71029 1.68427 1.66474 1.68427 1.71029 1.50867 1.57581 1.57723 1.64897 1.63986 1.57581 1.62899 1.57723 1.63986 1.57581 1.63986 1.57723 1.73861 1.68427 1.70551 1.62899 1.63986 1.68427 1.64897 1.70551 1.63986 1.68427 1.63986 1.70551 1.52818 1.52728 1.5678 1.52421 1.57165 1.52728 1.60739 1.5678 1.57165 1.52728 1.57165 1.5678 1.50867 1.57723 1.51868 1.62899 1.57541 1.57723 1.52421 1.51868 1.57541 1.57723 1.57541 1.51868 1.68591 1.64745 1.66474 1.60739 1.61792 1.64745 1.62899 1.66474 1.61792 1.64745 1.61792 1.66474 1.52421 1.57541 1.57165 1.62899 1.61792 1.57541 1.60739 1.57165 1.61792 1.57541 1.61792 1.57165 1.21308 1.32312 1.24171 1.42869 1.33544 1.32312 1.26157 1.24171 1.33544 1.32312 1.33544 1.24171 1.61027 1.50671 1.52535 1.41943 1.42483 1.50671 1.42869 1.52535 1.42483 1.50671 1.42483 1.52535 1.28553 1.27554 1.34627 1.26157 1.34257 1.27554 1.41943 1.34627 1.34257 1.27554 1.34257 1.34627 1.42869 1.42483 1.33544 1.41943 1.34257 1.42483 1.26157 1.33544 1.34257 1.42483 1.34257 1.33544 1.80723 1.72754 1.77861 1.64897 1.68812 1.72754 1.73748 1.77861 1.68812 1.72754 1.68812 1.77861 1.50867 1.52789 1.57581 1.55183 1.60434 1.52789 1.64897 1.57581 1.60434 1.52789 1.60434 1.57581 1.61027 1.68101 1.57859 1.73748 1.63985 1.68101 1.55183 1.57859 1.63985 1.68101 1.63985 1.57859 1.64897 1.60434 1.68812 1.55183 1.63985 1.60434 1.73748 1.68812 1.63985 1.60434 1.63985 1.68812 1.30501 1.30178 1.34715 1.29798 1.34718 1.30178 1.39444 1.34715 1.34718 1.30178 1.34718 1.34715 1.28553 1.34766 1.29265 1.4065 1.34809 1.34766 1.29798 1.29265 1.34809 1.34766 1.34809 1.29265 1.50867 1.44833 1.45977 1.39444 1.39978 1.44833 1.4065 1.45977 1.39978 1.44833 1.39978 1.45977 1.29798 1.34809 1.34718 1.4065 1.39978 1.34809 1.39444 1.34718 1.39978 1.34809 1.39978 1.34718 1.61027 1.57859 1.50671 1.55183 1.48952 1.57859 1.41943 1.50671 1.48952 1.57859 1.48952 1.50671 1.50867 1.45977 1.52789 1.4065 1.47419 1.45977 1.55183 1.52789 1.47419 1.45977 1.47419 1.52789 1.28553 1.34627 1.34766 1.41943 1.41291 1.34627 1.4065 1.34766 1.41291 1.34627 1.41291 1.34766 1.55183 1.47419 1.48952 1.4065 1.41291 1.47419 1.41943 1.48952 1.41291 1.47419 1.41291 1.48952 1.80307 1.76372 1.7918 1.73151 1.75573 1.76372 1.77383 1.7918 1.75573 1.76372 1.75573 1.7918 1.68392 1.70185 1.70529 1.71601 1.7261 1.70185 1.73151 1.70529 1.7261 1.70185 1.7261 1.70529 1.72595 1.7513 1.72466 1.77383 1.74221 1.7513 1.71601 1.72466 1.74221 1.7513 1.74221 1.72466 1.73151 1.7261 1.75573 1.71601 1.74221 1.7261 1.77383 1.75573 1.74221 1.7261 1.74221 1.75573 1.63474 1.64358 1.64259 1.65182 1.65404 1.64358 1.65309 1.64259 1.65404 1.64358 1.65404 1.64259 1.65935 1.66947 1.65702 1.67701 1.66303 1.66947 1.65182 1.65702 1.66303 1.66947 1.66303 1.65702 1.68392 1.66688 1.68221 1.65309 1.66624 1.66688 1.67701 1.68221 1.66624 1.66688 1.66624 1.68221 1.65182 1.66303 1.65404 1.67701 1.66624 1.66303 1.65309 1.65404 1.66624 1.66303 1.66624 1.65404 1.62192 1.64663 1.63889 1.67256 1.66127 1.64663 1.65106 1.63889 1.66127 1.64663 1.66127 1.63889 1.72595 1.70461 1.69941 1.68653 1.68297 1.70461 1.67256 1.69941 1.68297 1.70461 1.68297 1.69941 1.65935 1.6575 1.67181 1.65106 1.66938 1.6575 1.68653 1.67181 1.66938 1.6575 1.66938 1.67181 1.67256 1.68297 1.66127 1.68653 1.66938 1.68297 1.65106 1.66127 1.66938 1.68297 1.66938 1.66127 1.68392 1.68221 1.70185 1.67701 1.69455 1.68221 1.71601 1.70185 1.69455 1.68221 1.69455 1.70185 1.65935 1.67181 1.66947 1.68653 1.68409 1.67181 1.67701 1.66947 1.68409 1.67181 1.68409 1.66947 1.72595 1.72466 1.70461 1.71601 1.70254 1.72466 1.68653 1.70461 1.70254 1.72466 1.70254 1.70461 1.67701 1.68409 1.69455 1.68653 1.70254 1.68409 1.71601 1.69455 1.70254 1.68409 1.70254 1.69455 1.30501 1.24983 1.30178 1.18456 1.24134 1.24983 1.29798 1.30178 1.24134 1.24983 1.24134 1.30178 1.0235 1.08324 1.10861 1.14715 1.16773 1.08324 1.18456 1.10861 1.16773 1.08324 1.16773 1.10861 1.28553 1.29265 1.21572 1.29798 1.22987 1.29265 1.14715 1.21572 1.22987 1.29265 1.22987 1.21572 1.18456 1.16773 1.24134 1.14715 1.22987 1.16773 1.29798 1.24134 1.22987 1.16773 1.22987 1.24134 0.636289 0.671548 0.733094 0.715145 0.778013 0.671548 0.832456 0.733094 0.778013 0.671548 0.778013 0.733094 0.832008 0.893997 0.768194 0.945264 0.831427 0.893997 0.715145 0.768194 0.831427 0.893997 0.831427 0.768194 1.0235 0.930352 0.987913 0.832456 0.885045 0.930352 0.945264 0.987913 0.885045 0.930352 0.885045 0.987913 0.715145 0.831427 0.778013 0.945264 0.885045 0.831427 0.832456 0.778013 0.885045 0.831427 0.885045 0.778013 1.21308 1.24171 1.10054 1.26157 1.1426 1.24171 0.997095 1.10054 1.1426 1.24171 1.1426 1.10054 1.28553 1.19747 1.27554 1.08968 1.17379 1.19747 1.26157 1.27554 1.17379 1.19747 1.17379 1.27554 0.832008 0.908422 0.966722 0.997095 1.0492 0.908422 1.08968 0.966722 1.0492 0.908422 1.0492 0.966722 1.26157 1.17379 1.1426 1.08968 1.0492 1.17379 0.997095 1.1426 1.0492 1.17379 1.0492 1.1426 1.0235 0.987913 1.08324 0.945264 1.05187 0.987913 1.14715 1.08324 1.05187 0.987913 1.05187 1.08324 0.832008 0.966722 0.893997 1.08968 1.01372 0.966722 0.945264 0.893997 1.01372 0.966722 1.01372 0.893997 1.28553 1.21572 1.19747 1.14715 1.12164 1.21572 1.08968 1.19747 1.12164 1.21572 1.12164 1.19747 0.945264 1.01372 1.05187 1.08968 1.12164 1.01372 1.14715 1.05187 1.12164 1.01372 1.12164 1.05187 </DataArray>