<?xml version="1.0" encoding="UTF-8"?>
<VTKFile type="UnstructuredGrid" version="0.1" byte_order="LittleEndian" compressor="vtkZLibDataCompressor">
    <UnstructuredGrid>
        <Piece NumberOfPoints="1920" NumberOfCells="640">
            <Points>
                <DataArray type="Float64" Name="Array" NumberOfComponents="3" format="ascii" RangeMin="0" RangeMax="24.6117409243998">22.1334 16 0 21.6197 16 0 21.9429 15.617 0 21.1061 16 0 21.4292 15.617 0 21.6197 16 0 21.7523 15.2341 0 21.9429 15.617 0 21.4292 15.617 0 21.6197 16 0 21.4292 15.617 0 21.9429 15.617 0 20.0787 16 0 20.4018 15.617 0 20.5924 16 0 20.7249 15.2341 0 20.9155 15.617 0 20.4018 15.617 0 21.1061 16 0 20.5924 16 0 20.9155 15.617 0 20.4018 15.617 0 20.9155 15.617 0 20.5924 16 0 21.3711 14.4681 0 21.5617 14.8511 0 21.048 14.8511 0 21.7523 15.2341 0 21.2386 15.2341 0 21.5617 14.8511 0 20.7249 15.2341 0 21.048 14.8511 0 21.2386 15.2341 0 21.5617 14.8511 0 21.2386 15.2341 0 21.048 14.8511 0 21.1061 16 0 20.9155 15.617 0 21.4292 15.617 0 20.7249 15.2341 0 21.2386 15.2341 0 20.9155 15.617 0 21.7523 15.2341 0 21.4292 15.617 0 21.2386 15.2341 0 20.9155 15.617 0 21.2386 15.2341 0 21.4292 15.617 0 18.0239 16 0 18.347 15.617 0 18.5376 16 0 18.6701 15.2341 0 18.8607 15.617 0 18.347 15.617 0 19.0513 16 0 18.5376 16 0 18.8607 15.617 0 18.347 15.617 0 18.8607 15.617 0 18.5376 16 0 19.3163 14.4681 0 19.5069 14.8511 0 18.9932 14.8511 0 19.6975 15.2341 0 19.1838 15.2341 0 19.5069 14.8511 0 18.6701 15.2341 0 18.9932 14.8511 0 19.1838 15.2341 0 19.5069 14.8511 0 19.1838 15.2341 0 18.9932 14.8511 0 20.0787 16 0 19.565 16 0 19.8881 15.617 0 19.0513 16 0 19.3744 15.617 0 19.565 16 0 19.6975 15.2341 0 19.8881 15.617 0 19.3744 15.617 0 19.565 16 0 19.3744 15.617 0 19.8881 15.617 0 18.6701 15.2341 0 19.1838 15.2341 0 18.8607 15.617 0 19.6975 15.2341 0 19.3744 15.617 0 19.1838 15.2341 0 19.0513 16 0 18.8607 15.617 0 19.3744 15.617 0 19.1838 15.2341 0 19.3744 15.617 0 18.8607 15.617 0 20.6088 12.9362 0 20.7994 13.3192 0 20.2857 13.3192 0 20.9899 13.7022 0 20.4762 13.7022 0 20.7994 13.3192 0 19.9626 13.7022 0 20.2857 13.3192 0 20.4762 13.7022 0 20.7994 13.3192 0 20.4762 13.7022 0 20.2857 13.3192 0 21.3711 14.4681 0 20.8574 14.4681 0 21.1805 14.0851 0 20.3437 14.4681 0 20.6668 14.0851 0 20.8574 14.4681 0 20.9899 13.7022 0 21.1805 14.0851 0 20.6668 14.0851 0 20.8574 14.4681 0 20.6668 14.0851 0 21.1805 14.0851 0 19.3163 14.4681 0 19.6394 14.0851 0 19.83 14.4681 0 19.9626 13.7022 0 20.1531 14.0851 0 19.6394 14.0851 0 20.3437 14.4681 0 19.83 14.4681 0 20.1531 14.0851 0 19.6394 14.0851 0 20.1531 14.0851 0 19.83 14.4681 0 20.9899 13.7022 0 20.6668 14.0851 0 20.4762 13.7022 0 20.3437 14.4681 0 20.1531 14.0851 0 20.6668 14.0851 0 19.9626 13.7022 0 20.4762 13.7022 0 20.1531 14.0851 0 20.6668 14.0851 0 20.1531 14.0851 0 20.4762 13.7022 0 20.0787 16 0 19.8881 15.617 0 20.4018 15.617 0 19.6975 15.2341 0 20.2112 15.2341 0 19.8881 15.617 0 20.7249 15.2341 0 20.4018 15.617 0 20.2112 15.2341 0 19.8881 15.617 0 20.2112 15.2341 0 20.4018 15.617 0 19.3163 14.4681 0 19.83 14.4681 0 19.5069 14.8511 0 20.3437 14.4681 0 20.0206 14.8511 0 19.83 14.4681 0 19.6975 15.2341 0 19.5069 14.8511 0 20.0206 14.8511 0 19.83 14.4681 0 20.0206 14.8511 0 19.5069 14.8511 0 21.3711 14.4681 0 21.048 14.8511 0 20.8574 14.4681 0 20.7249 15.2341 0 20.5343 14.8511 0 21.048 14.8511 0 20.3437 14.4681 0 20.8574 14.4681 0 20.5343 14.8511 0 21.048 14.8511 0 20.5343 14.8511 0 20.8574 14.4681 0 19.6975 15.2341 0 20.0206 14.8511 0 20.2112 15.2341 0 20.3437 14.4681 0 20.5343 14.8511 0 20.0206 14.8511 0 20.7249 15.2341 0 20.2112 15.2341 0 20.5343 14.8511 0 20.0206 14.8511 0 20.5343 14.8511 0 20.2112 15.2341 0 18.0239 16 0 17.8166 15.6402 0 18.347 15.617 0 17.6093 15.2804 0 18.1397 15.2572 0 17.8166 15.6402 0 18.6701 15.2341 0 18.347 15.617 0 18.1397 15.2572 0 17.8166 15.6402 0 18.1397 15.2572 0 18.347 15.617 0 17.1948 14.5608 0 17.7251 14.5377 0 17.402 14.9206 0 18.2555 14.5145 0 17.9324 14.8975 0 17.7251 14.5377 0 17.6093 15.2804 0 17.402 14.9206 0 17.9324 14.8975 0 17.7251 14.5377 0 17.9324 14.8975 0 17.402 14.9206 0 19.3163 14.4681 0 18.9932 14.8511 0 18.7859 14.4913 0 18.6701 15.2341 0 18.4628 14.8743 0 18.9932 14.8511 0 18.2555 14.5145 0 18.7859 14.4913 0 18.4628 14.8743 0 18.9932 14.8511 0 18.4628 14.8743 0 18.7859 14.4913 0 17.6093 15.2804 0 17.9324 14.8975 0 18.1397 15.2572 0 18.2555 14.5145 0 18.4628 14.8743 0 17.9324 14.8975 0 18.6701 15.2341 0 18.1397 15.2572 0 18.4628 14.8743 0 17.9324 14.8975 0 18.4628 14.8743 0 18.1397 15.2572 0 16.3656 13.1217 0 16.896 13.0985 0 16.5729 13.4815 0 17.4264 13.0753 0 17.1033 13.4583 0 16.896 13.0985 0 16.7802 13.8413 0 16.5729 13.4815 0 17.1033 13.4583 0 16.896 13.0985 0 17.1033 13.4583 0 16.5729 13.4815 0 18.4872 13.029 0 18.1641 13.4119 0 17.9568 13.0521 0 17.841 13.7949 0 17.6337 13.4351 0 18.1641 13.4119 0 17.4264 13.0753 0 17.9568 13.0521 0 17.6337 13.4351 0 18.1641 13.4119 0 17.6337 13.4351 0 17.9568 13.0521 0 17.1948 14.5608 0 16.9875 14.2011 0 17.5179 14.1779 0 16.7802 13.8413 0 17.3106 13.8181 0 16.9875 14.2011 0 17.841 13.7949 0 17.5179 14.1779 0 17.3106 13.8181 0 16.9875 14.2011 0 17.3106 13.8181 0 17.5179 14.1779 0 17.4264 13.0753 0 17.6337 13.4351 0 17.1033 13.4583 0 17.841 13.7949 0 17.3106 13.8181 0 17.6337 13.4351 0 16.7802 13.8413 0 17.1033 13.4583 0 17.3106 13.8181 0 17.6337 13.4351 0 17.3106 13.8181 0 17.1033 13.4583 0 20.6088 12.9362 0 20.2857 13.3192 0 20.0784 12.9594 0 19.9626 13.7022 0 19.7553 13.3424 0 20.2857 13.3192 0 19.548 12.9826 0 20.0784 12.9594 0 19.7553 13.3424 0 20.2857 13.3192 0 19.7553 13.3424 0 20.0784 12.9594 0 19.3163 14.4681 0 19.1091 14.1083 0 19.6394 14.0851 0 18.9018 13.7485 0 19.4322 13.7254 0 19.1091 14.1083 0 19.9626 13.7022 0 19.6394 14.0851 0 19.4322 13.7254 0 19.1091 14.1083 0 19.4322 13.7254 0 19.6394 14.0851 0 18.4872 13.029 0 19.0176 13.0058 0 18.6945 13.3887 0 19.548 12.9826 0 19.2249 13.3656 0 19.0176 13.0058 0 18.9018 13.7485 0 18.6945 13.3887 0 19.2249 13.3656 0 19.0176 13.0058 0 19.2249 13.3656 0 18.6945 13.3887 0 19.9626 13.7022 0 19.4322 13.7254 0 19.7553 13.3424 0 18.9018 13.7485 0 19.2249 13.3656 0 19.4322 13.7254 0 19.548 12.9826 0 19.7553 13.3424 0 19.2249 13.3656 0 19.4322 13.7254 0 19.2249 13.3656 0 19.7553 13.3424 0 17.1948 14.5608 0 17.5179 14.1779 0 17.7251 14.5377 0 17.841 13.7949 0 18.0483 14.1547 0 17.5179 14.1779 0 18.2555 14.5145 0 17.7251 14.5377 0 18.0483 14.1547 0 17.5179 14.1779 0 18.0483 14.1547 0 17.7251 14.5377 0 18.4872 13.029 0 18.6945 13.3887 0 18.1641 13.4119 0 18.9018 13.7485 0 18.3714 13.7717 0 18.6945 13.3887 0 17.841 13.7949 0 18.1641 13.4119 0 18.3714 13.7717 0 18.6945 13.3887 0 18.3714 13.7717 0 18.1641 13.4119 0 19.3163 14.4681 0 18.7859 14.4913 0 19.1091 14.1083 0 18.2555 14.5145 0 18.5787 14.1315 0 18.7859 14.4913 0 18.9018 13.7485 0 19.1091 14.1083 0 18.5787 14.1315 0 18.7859 14.4913 0 18.5787 14.1315 0 19.1091 14.1083 0 17.841 13.7949 0 18.3714 13.7717 0 18.0483 14.1547 0 18.9018 13.7485 0 18.5787 14.1315 0 18.3714 13.7717 0 18.2555 14.5145 0 18.0483 14.1547 0 18.5787 14.1315 0 18.3714 13.7717 0 18.5787 14.1315 0 18.0483 14.1547 0 22.1334 16 0 21.9429 15.617 0 22.4432 15.6254 0 21.7523 15.2341 0 22.2526 15.2425 0 21.9429 15.617 0 22.753 15.2509 0 22.4432 15.6254 0 22.2526 15.2425 0 21.9429 15.617 0 22.2526 15.2425 0 22.4432 15.6254 0 21.3711 14.4681 0 21.8715 14.4765 0 21.5617 14.8511 0 22.3718 14.4849 0 22.0621 14.8595 0 21.8715 14.4765 0 21.7523 15.2341 0 21.5617 14.8511 0 22.0621 14.8595 0 21.8715 14.4765 0 22.0621 14.8595 0 21.5617 14.8511 0 23.3726 14.5018 0 23.0628 14.8763 0 22.8722 14.4934 0 22.753 15.2509 0 22.5624 14.8679 0 23.0628 14.8763 0 22.3718 14.4849 0 22.8722 14.4934 0 22.5624 14.8679 0 23.0628 14.8763 0 22.5624 14.8679 0 22.8722 14.4934 0 21.7523 15.2341 0 22.0621 14.8595 0 22.2526 15.2425 0 22.3718 14.4849 0 22.5624 14.8679 0 22.0621 14.8595 0 22.753 15.2509 0 22.2526 15.2425 0 22.5624 14.8679 0 22.0621 14.8595 0 22.5624 14.8679 0 22.2526 15.2425 0 20.6088 12.9362 0 21.1091 12.9446 0 20.7994 13.3192 0 21.6095 12.9531 0 21.2997 13.3276 0 21.1091 12.9446 0 20.9899 13.7022 0 20.7994 13.3192 0 21.2997 13.3276 0 21.1091 12.9446 0 21.2997 13.3276 0 20.7994 13.3192 0 22.6103 12.9699 0 22.3005 13.3444 0 22.1099 12.9615 0 21.9907 13.719 0 21.8001 13.336 0 22.3005 13.3444 0 21.6095 12.9531 0 22.1099 12.9615 0 21.8001 13.336 0 22.3005 13.3444 0 21.8001 13.336 0 22.1099 12.9615 0 21.3711 14.4681 0 21.1805 14.0851 0 21.6809 14.0936 0 20.9899 13.7022 0 21.4903 13.7106 0 21.1805 14.0851 0 21.9907 13.719 0 21.6809 14.0936 0 21.4903 13.7106 0 21.1805 14.0851 0 21.4903 13.7106 0 21.6809 14.0936 0 21.6095 12.9531 0 21.8001 13.336 0 21.2997 13.3276 0 21.9907 13.719 0 21.4903 13.7106 0 21.8001 13.336 0 20.9899 13.7022 0 21.2997 13.3276 0 21.4903 13.7106 0 21.8001 13.336 0 21.4903 13.7106 0 21.2997 13.3276 0 24.6117 13.0035 0 24.302 13.3781 0 24.1114 12.9951 0 23.9922 13.7526 0 23.8016 13.3697 0 24.302 13.3781 0 23.611 12.9867 0 24.1114 12.9951 0 23.8016 13.3697 0 24.302 13.3781 0 23.8016 13.3697 0 24.1114 12.9951 0 23.3726 14.5018 0 23.182 14.1188 0 23.6824 14.1272 0 22.9914 13.7358 0 23.4918 13.7442 0 23.182 14.1188 0 23.9922 13.7526 0 23.6824 14.1272 0 23.4918 13.7442 0 23.182 14.1188 0 23.4918 13.7442 0 23.6824 14.1272 0 22.6103 12.9699 0 23.1106 12.9783 0 22.8008 13.3528 0 23.611 12.9867 0 23.3012 13.3613 0 23.1106 12.9783 0 22.9914 13.7358 0 22.8008 13.3528 0 23.3012 13.3613 0 23.1106 12.9783 0 23.3012 13.3613 0 22.8008 13.3528 0 23.9922 13.7526 0 23.4918 13.7442 0 23.8016 13.3697 0 22.9914 13.7358 0 23.3012 13.3613 0 23.4918 13.7442 0 23.611 12.9867 0 23.8016 13.3697 0 23.3012 13.3613 0 23.4918 13.7442 0 23.3012 13.3613 0 23.8016 13.3697 0 21.3711 14.4681 0 21.6809 14.0936 0 21.8715 14.4765 0 21.9907 13.719 0 22.1813 14.102 0 21.6809 14.0936 0 22.3718 14.4849 0 21.8715 14.4765 0 22.1813 14.102 0 21.6809 14.0936 0 22.1813 14.102 0 21.8715 14.4765 0 22.6103 12.9699 0 22.8008 13.3528 0 22.3005 13.3444 0 22.9914 13.7358 0 22.4911 13.7274 0 22.8008 13.3528 0 21.9907 13.719 0 22.3005 13.344
[...]
            <PointData>
                <DataArray Name="p" type="Float64" format="ascii">0.24409 0.258232 0.252431 0.274884 0.267556 0.258232 0.259792 0.252431 0.267556 0.258232 0.267556 0.252431 0.317474 0.306113 0.294488 0.29411 0.285313 0.306113 0.274884 0.294488 0.285313 0.306113 0.285313 0.294488 0.269029 0.265639 0.281554 0.259792 0.275607 0.265639 0.29411 0.281554 0.275607 0.265639 0.275607 0.281554 0.274884 0.285313 0.267556 0.29411 0.275607 0.285313 0.259792 0.267556 0.275607 0.285313 0.275607 0.267556 0.450361 0.427294 0.410488 0.403219 0.390748 0.427294 0.375173 0.410488 0.390748 0.427294 0.390748 0.410488 0.347992 0.347401 0.376729 0.340888 0.369963 0.347401 0.403219 0.376729 0.369963 0.347401 0.369963 0.376729 0.317474 0.34426 0.330379 0.375173 0.358473 0.34426 0.340888 0.330379 0.358473 0.34426 0.358473 0.330379 0.403219 0.369963 0.390748 0.340888 0.358473 0.369963 0.375173 0.390748 0.358473 0.369963 0.358473 0.390748 0.242685 0.256178 0.263558 0.26484 0.275822 0.256178 0.289335 0.263558 0.275822 0.256178 0.275822 0.263558 0.269029 0.284255 0.269026 0.302123 0.282548 0.284255 0.26484 0.269026 0.282548 0.284255 0.282548 0.269026 0.347992 0.318154 0.323226 0.289335 0.298787 0.318154 0.302123 0.323226 0.298787 0.318154 0.298787 0.323226 0.26484 0.282548 0.275822 0.302123 0.298787 0.282548 0.289335 0.275822 0.298787 0.282548 0.298787 0.275822 0.317474 0.330379 0.306113 0.340888 0.315743 0.330379 0.29411 0.306113 0.315743 0.330379 0.315743 0.306113 0.347992 0.323226 0.347401 0.302123 0.32196 0.323226 0.340888 0.347401 0.32196 0.323226 0.32196 0.347401 0.269029 0.281554 0.284255 0.29411 0.300202 0.281554 0.302123 0.284255 0.300202 0.281554 0.300202 0.284255 0.340888 0.32196 0.315743 0.302123 0.300202 0.32196 0.29411 0.315743 0.300202 0.32196 0.300202 0.315743 0.450361 0.469749 0.427294 0.48642 0.442334 0.469749 0.403219 0.427294 0.442334 0.469749 0.442334 0.427294 0.504887 0.457188 0.498538 0.415351 0.452799 0.457188 0.48642 0.498538 0.452799 0.457188 0.452799 0.498538 0.347992 0.376729 0.378955 0.403219 0.412293 0.376729 0.415351 0.378955 0.412293 0.376729 0.412293 0.378955 0.48642 0.452799 0.442334 0.415351 0.412293 0.452799 0.403219 0.442334 0.412293 0.452799 0.412293 0.442334 0.481561 0.414851 0.492292 0.361492 0.433181 0.414851 0.500685 0.492292 0.433181 0.414851 0.433181 0.492292 0.289997 0.344994 0.320004 0.401055 0.384199 0.344994 0.361492 0.320004 0.384199 0.344994 0.384199 0.320004 0.504887 0.505289 0.455041 0.500685 0.446655 0.505289 0.401055 0.455041 0.446655 0.505289 0.446655 0.455041 0.361492 0.384199 0.433181 0.401055 0.446655 0.384199 0.500685 0.433181 0.446655 0.384199 0.446655 0.433181 0.242685 0.263558 0.247213 0.289335 0.275435 0.263558 0.255498 0.247213 0.275435 0.263558 0.275435 0.247213 0.347992 0.343644 0.318154 0.332593 0.308282 0.343644 0.289335 0.318154 0.308282 0.343644 0.308282 0.318154 0.289997 0.269018 0.314712 0.255498 0.29201 0.269018 0.332593 0.314712 0.29201 0.269018 0.29201 0.314712 0.289335 0.308282 0.275435 0.332593 0.29201 0.308282 0.255498 0.275435 0.29201 0.308282 0.29201 0.275435 0.504887 0.455041 0.457188 0.401055 0.41158 0.455041 0.415351 0.457188 0.41158 0.455041 0.41158 0.457188 0.289997 0.314712 0.344994 0.332593 0.363098 0.314712 0.401055 0.344994 0.363098 0.314712 0.363098 0.344994 0.347992 0.378955 0.343644 0.415351 0.37452 0.378955 0.332593 0.343644 0.37452 0.378955 0.37452 0.343644 0.401055 0.363098 0.41158 0.332593 0.37452 0.363098 0.415351 0.41158 0.37452 0.363098 0.37452 0.41158 0.24409 0.252431 0.239763 0.259792 0.246566 0.252431 0.235124 0.239763 0.246566 0.252431 0.246566 0.239763 0.269029 0.256392 0.265639 0.245348 0.252329 0.256392 0.259792 0.265639 0.252329 0.256392 0.252329 0.265639 0.227022 0.230692 0.235662 0.235124 0.240776 0.230692 0.245348 0.235662 0.240776 0.230692 0.240776 0.235662 0.259792 0.252329 0.246566 0.245348 0.240776 0.252329 0.235124 0.246566 0.240776 0.252329 0.240776 0.246566 0.242685 0.241502 0.256178 0.24057 0.250777 0.241502 0.26484 0.256178 0.250777 0.241502 0.250777 0.256178 0.238558 0.242046 0.239889 0.24861 0.24623 0.242046 0.24057 0.239889 0.24623 0.242046 0.24623 0.239889 0.269029 0.269026 0.257899 0.26484 0.256192 0.269026 0.24861 0.257899 0.256192 0.269026 0.256192 0.257899 0.24057 0.24623 0.250777 0.24861 0.256192 0.24623 0.26484 0.250777 0.256192 0.24623 0.256192 0.250777 0.227476 0.224845 0.231272 0.22386 0.229479 0.224845 0.234355 0.231272 0.229479 0.224845 0.229479 0.231272 0.227022 0.231793 0.224635 0.235587 0.22965 0.231793 0.22386 0.224635 0.22965 0.231793 0.22965 0.224635 0.238558 0.236862 0.238001 0.234355 0.233823 0.236862 0.235587 0.238001 0.233823 0.236862 0.233823 0.238001 0.22386 0.22965 0.229479 0.235587 0.233823 0.22965 0.234355 0.229479 0.233823 0.22965 0.233823 0.229479 0.269029 0.257899 0.256392 0.24861 0.248188 0.257899 0.245348 0.256392 0.248188 0.257899 0.248188 0.256392 0.238558 0.238001 0.242046 0.235587 0.241869 0.238001 0.24861 0.242046 0.241869 0.238001 0.241869 0.242046 0.227022 0.235662 0.231793 0.245348 0.239576 0.235662 0.235587 0.231793 0.239576 0.235662 0.239576 0.231793 0.24861 0.241869 0.248188 0.235587 0.239576 0.241869 0.245348 0.248188 0.239576 0.241869 0.239576 0.248188 0.227476 0.231272 0.235543 0.234355 0.237767 0.231272 0.243764 0.235543 0.237767 0.231272 0.237767 0.235543 0.238558 0.238704 0.236862 0.243032 0.238892 0.238704 0.234355 0.236862 0.238892 0.238704 0.238892 0.236862 0.261495 0.252355 0.250855 0.243764 0.244282 0.252355 0.243032 0.250855 0.244282 0.252355 0.244282 0.250855 0.234355 0.238892 0.237767 0.243032 0.244282 0.238892 0.243764 0.237767 0.244282 0.238892 0.244282 0.237767 0.242685 0.22599 0.241502 0.218514 0.231081 0.22599 0.24057 0.241502 0.231081 0.22599 0.231081 0.241502 0.227865 0.231752 0.218966 0.234831 0.227734 0.231752 0.218514 0.218966 0.227734 0.231752 0.227734 0.218966 0.238558 0.239889 0.23738 0.24057 0.234525 0.239889 0.234831 0.23738 0.234525 0.239889 0.234525 0.23738 0.218514 0.227734 0.231081 0.234831 0.234525 0.227734 0.24057 0.231081 0.234525 0.227734 0.234525 0.231081 0.309438 0.296253 0.287282 0.283281 0.276089 0.296253 0.264069 0.287282 0.276089 0.296253 0.276089 0.287282 0.261495 0.258117 0.271773 0.251636 0.26624 0.258117 0.283281 0.271773 0.26624 0.258117 0.26624 0.271773 0.227865 0.243275 0.241837 0.264069 0.257275 0.243275 0.251636 0.241837 0.257275 0.243275 0.257275 0.241837 0.283281 0.26624 0.276089 0.251636 0.257275 0.26624 0.264069 0.276089 0.257275 0.26624 0.257275 0.276089 0.238558 0.23738 0.238704 0.234831 0.239996 0.23738 0.243032 0.238704 0.239996 0.23738 0.239996 0.238704 0.227865 0.241837 0.231752 0.251636 0.240685 0.241837 0.234831 0.231752 0.240685 0.241837 0.240685 0.231752 0.261495 0.250855 0.258117 0.243032 0.24724 0.250855 0.251636 0.258117 0.24724 0.250855 0.24724 0.258117 0.234831 0.240685 0.239996 0.251636 0.24724 0.240685 0.243032 0.239996 0.24724 0.240685 0.24724 0.239996 0.309438 0.287282 0.3 0.264069 0.275299 0.287282 0.287921 0.3 0.275299 0.287282 0.275299 0.3 0.227865 0.230024 0.243275 0.234891 0.250464 0.230024 0.264069 0.243275 0.250464 0.230024 0.250464 0.243275 0.253448 0.272333 0.242737 0.287921 0.260286 0.272333 0.234891 0.242737 0.260286 0.272333 0.260286 0.242737 0.264069 0.250464 0.275299 0.234891 0.260286 0.250464 0.287921 0.275299 0.260286 0.250464 0.260286 0.275299 0.242685 0.226778 0.22599 0.210127 0.213127 0.226778 0.218514 0.22599 0.213127 0.226778 0.213127 0.22599 0.178016 0.189903 0.193781 0.203535 0.200922 0.189903 0.210127 0.193781 0.200922 0.189903 0.200922 0.193781 0.227865 0.218966 0.215716 0.218514 0.21031 0.218966 0.203535 0.215716 0.21031 0.218966 0.21031 0.215716 0.210127 0.200922 0.213127 0.203535 0.21031 0.200922 0.218514 0.213127 0.21031 0.200922 0.21031 0.213127 0.138864 0.172839 0.142787 0.203902 0.170882 0.172839 0.151683 0.142787 0.170882 0.172839 0.170882 0.142787 0.253448 0.221528 0.230405 0.196855 0.198261 0.221528 0.203902 0.230405 0.198261 0.221528 0.198261 0.230405 0.178016 0.163731 0.180673 0.151683 0.17414 0.163731 0.196855 0.180673 0.17414 0.163731 0.17414 0.180673 0.203902 0.198261 0.170882 0.196855 0.17414 0.198261 0.151683 0.170882 0.17414 0.198261 0.17414 0.170882 0.227865 0.215716 0.230024 0.203535 0.214706 0.215716 0.234891 0.230024 0.214706 0.215716 0.214706 0.230024 0.178016 0.180673 0.189903 0.196855 0.19879 0.180673 0.203535 0.189903 0.19879 0.180673 0.19879 0.189903 0.253448 0.242737 0.221528 0.234891 0.216537 0.242737 0.196855 0.221528 0.216537 0.242737 0.216537 0.221528 0.203535 0.19879 0.214706 0.196855 0.216537 0.19879 0.234891 0.214706 0.216537 0.19879 0.216537 0.214706 0.242685 0.247213 0.231263 0.255498 0.233301 0.247213 0.216001 0.231263 0.233301 0.247213 0.233301 0.231263 0.289997 0.252354 0.269018 0.219455 0.23949 0.252354 0.255498 0.269018 0.23949 0.252354 0.23949 0.269018 0.17148 0.196095 0.192209 0.216001 0.215005 0.196095 0.219455 0.192209 0.215005 0.196095 0.215005 0.192209 0.255498 0.23949 0.233301 0.219455 0.215005 0.23949 0.216001 0.233301 0.215005 0.23949 0.215005 0.233301 0.481561 0.414632 0.414851 0.345092 0.35251 0.414632 0.361492 0.414851 0.35251 0.414632 0.35251 0.414851 0.205857 0.231104 0.27465 0.254655 0.290765 0.231104 0.345092 0.27465 0.290765 0.231104 0.290765 0.27465 0.289997 0.320004 0.273623 0.361492 0.306848 0.320004 0.254655 0.273623 0.306848 0.320004 0.306848 0.273623 0.345092 0.290765 0.35251 0.254655 0.306848 0.290765 0.361492 0.35251 0.306848 0.290765 0.306848 0.35251 0.00131075 0.0569505 0.0364204 0.103217 0.0868247 0.0569505 0.0839583 0.0364204 0.0868247 0.0569505 0.0868247 0.0364204 0.17148 0.163597 0.140494 0.164204 0.129321 0.163597 0.103217 0.140494 0.129321 0.163597 0.129321 0.140494 0.205857 0.141328 0.175767 0.0839583 0.126978 0.141328 0.164204 0.175767 0.126978 0.141328 0.126978 0.175767 0.103217 0.129321 0.0868247 0.164204 0.126978 0.129321 0.0839583 0.0868247 0.126978 0.129321 0.126978 0.0868247 0.289997 0.273623 0.252354 0.254655 0.231303 0.273623 0.219455 0.252354 0.231303 0.273623 0.231303 0.252354 0.205857 0.175767 0.231104 0.164204 0.206498 0.175767 0.254655 0.231104 0.206498 0.175767 0.206498 0.231104 0.17148 0.192209 0.163597 0.219455 0.194191 0.192209 0.164204 0.163597 0.194191 0.192209 0.194191 0.163597 0.254655 0.206498 0.231303 0.164204 0.194191 0.206498 0.219455 0.231303 0.194191 0.206498 0.194191 0.231303 0.00131075 0.0364204 -0.025314 0.0839583 0.018606 0.0364204 -0.0520929 -0.025314 0.018606 0.0364204 0.018606 -0.025314 0.205857 0.142001 0.141328 0.0696161 0.0754593 0.142001 0.0839583 0.141328 0.0754593 0.142001 0.0754593 0.141328 -0.102812 -0.0783378 -0.0119265 -0.0520929 0.00214438 -0.0783378 0.0696161 -0.0119265 0.00214438 -0.0783378 0.00214438 -0.0119265 0.0839583 0.0754593 0.018606 0.0696161 0.00214438 0.0754593 -0.0520929 0.018606 0.00214438 0.0754593 0.00214438 0.018606 0.481561 0.440783 0.414632 0.392721 0.366886 0.440783 0.345092 0.414632 0.366886 0.440783 0.366886 0.414632 0.27047 0.246178 0.336805 0.227975 0.311195 0.246178 0.392721 0.336805 0.311195 0.246178 0.311195 0.336805 0.205857 0.27465 0.214871 0.345092 0.290859 0.27465 0.227975 0.214871 0.290859 0.27465 0.290859 0.214871 0.392721 0.311195 0.366886 0.227975 0.290859 0.311195 0.345092 0.366886 0.290859 0.311195 0.290859 0.366886 -0.155254 -0.153626 -0.0163662 -0.141837 -0.0277526 -0.153626 0.096907 -0.0163662 -0.0277526 -0.153626 -0.0277526 -0.0163662 -0.102812 -0.022592 -0.12493 0.0704247 -0.027954 -0.022592 -0.141837 -0.12493 -0.027954 -0.022592 -0.027954 -0.12493 0.27047 0.191865 0.169639 0.096907 0.0795637 0.191865 0.0704247 0.169639 0.0795637 0.191865 0.0795637 0.169639 -0.141837 -0.027954 -0.0277526 0.0704247 0.0795637 -0.027954 0.096907 -0.0277526 0.0795637 -0.027954 0.0795637 -0.0277526 0.205857 0.214871 0.142001 0.227975 0.146158 0.214871 0.0696161 0.142001 0.146158 0.214871 0.146158 0.142001 0.27047 0.169639 0.246178 0.0704247 0.155199 0.169639 0.227975 0.246178 0.155199 0.169639 0.155199 0.246178 -0.102812 -0.0119265 -0.022592 0.0696161 0.0675051 -0.0119265 0.0704247 -0.022592 0.0675051 -0.0119265 0.0675051 -0.022592 0.227975 0.155199 0.146158 0.0704247 0.0675051 0.155199 0.0696161 0.146158 0.0675051 0.155199 0.0675051 0.146158 0.00131075 -0.049138 -0.032908 -0.10775 -0.0867906 -0.049138 -0.0644919 -0.032908 -0.0867906 -0.049138 -0.0867906 -0.032908 -0.250604 -0.217522 -0.174466 -0.183197 -0.148114 -0.217522 -0.10775 -0.174466 -0.148114 -0.217522 -0.148114 -0.174466 -0.113905 -0.0920332 -0.148491 -0.0644919 -0.120346 -0.0920332 -0.183197 -0.148491 -0.120346 -0.0920332 -0.120346 -0.148491 -0.10775 -0.148114 -0.0867906 -0.183197 -0.120346 -0.148114 -0.0644919 -0.0867906 -0.120346 -0.148114 -0.120346 -0.0867906 -0.620883 -0.549841 -0.526333 -0.479386 -0.465696 -0.549841 -0.429374 -0.526333 -0.465696 -0.549841 -0.465696 -0.526333 -0.346286 -0.345113 -0.411604 -0.327507 -0.404488 -0.345113 -0.479386 -0.411604 -0.404488 -0.345113 -0.404488 -0.411604 -0.250604 -0.336014 -0.294981 -0.429374 -0.378841 -0.336014 -0.327507 -0.294981 -0.378841 -0.336014 -0.378841 -0.294981 -0.479386 -0.404488 -0.465696 -0.327507 -0.378841 -0.404488 -0.429374 -0.465696 -0.378841 -0.404488 -0.378841 -0.465696 -0.118363 -0.13049 -0.170125 -0.134137 -0.17996 -0.13049 -0.225381 -0.170125 -0.17996 -0.13049 -0.17996 -0.170125 -0.113905 -0.168979 -0.12846 -0.227536 -0.179811 -0.168979 -0.134137 -0.12846 -0.179811 -0.168979 -0.179811 -0.12846 -0.346286 -0.284174 -0.287525 -0.225381 -0.2324 -0.284174 -0.227536 -0.287525 -0.2324 -0.284174 -0.2324 -0.287525 -0.134137 -0.179811 -0.17996 -0.227536 -0.2324 -0.179811 -0.225381 -0.17996 -0.2324 -0.179811 -0.2324 -0.17996 -0.250604 -0.294981 -0.217522 -0.327507 -0.252731 -0.294981 -0.183197 -0.217522 -0.252731 -0.294981 -0.252731 -0.217522 -0.346286 -0.287525 -0.345113 -0.227536 -0.276969 -0.287525 -0.327507 -0.345113 -0.276969 -0.287525 -0.276969 -0.345113 -0.113905 -0.148491 -0.168979 -0.183197 -0.210605 -0.148491 -0.227536 -0.168979 -0.210605 -0.148491 -0.210605 -0.168979 -0.327507 -0.276969 -0.252731 -0.227536 -0.210605 -0.276969 -0.183197 -0.252731 -0.210605 -0.276969 -0.210605 -0.252731 0.00131075 -0.032908 0.00303245 -0.0644919 -0.0254145 -0.032908 0.0102101 0.00303245 -0.0254145 -0.032908 -0.0254145 0.00303245 -0.113905 -0.068267 -0.0920332 -0.0271042 -0.04925 -0.068267 -0.0644919 -0.0920332 -0.04925 -0.068267 -0.04925 -0.0920332 0.0414547 0.023844 0.00901041 0.0102101 -0.0105186 0.023844 -0.0271042 0.00901041 -0.0105186 0.023844 -0.0105186 0.00901041 -0.0644919 -0.04925 -0.0254145 -0.0271042 -0.0105186 -0.04925 0.0102101 -0.0254145 -0.0105186 -0.04925 -0.0105186 -0.0254145 -0.118363 -0.0734982 -0.13049 -0.0323398 -0.0835588 -0.0734982 -0.134137 -0.13049 -0.0835588 -0.0734982 -0.0835588 -0.13049 0.0381623 -0.00301821 0.00477646 -0.0432574 -0.0411958 -0.00301821 -0.0323398 0.00477646 -0.0411958 -0.00301821 -0.0411958 0.00477646 -0.113905 -0.12846 -0.0810477 -0.134137 -0.0863365 -0.12846 -0.0432574 -0.0810477 -0.0863365 -0.12846 -0.0863365 -0.0810477 -0.0323398 -0.0411958 -0.0835588 -0.0432574 -0.0863365 -0.0411958 -0.134137 -0.0835588 -0.0863365 -0.0411958 -0.0863365 -0.0835588 0.138864 0.112428 0.117953 0.0868465 0.0885219 0.112428 0.0944924 0.117953 0.0885219 0.112428 0.0885219 0.117953 0.0414547 0.0330553 0.0629707 0.0294725 0.0597904 0.0330553 0.0868465 0.0629707 0.0597904 0.0330553 0.0597904 0.0629707 0.0381623 0.0679672 0.03116 0.0944924 0.0615563 0.0679672 0.0294725 0.03116 0.0615563 0.0679672 0.0615563 0.03116 0.0868465 0.0597904 0.0885219 0.0294725 0.0615563 0.0597904 0.0944924 0.0885219 0.0615563 0.0597904 0.0615563 0.0885219 -0.113905 -0.0810477 -0.068267 -0.0432574 -0.0383583 -0.0810477 -0.0271042 -0.068267 -0.0383583 -0.0810477 -0.0383583 -0.068267 0.0381623 0.03116 -0.00301821 0.0294725 -0.00485107 0.03116 -0.0432574 -0.00301821 -0.00485107 0.03116 -0.00485107 -0.00301821 0.0414547 0.00901041 0.0330553 -0.0271042 -0.000617705 0.00901041 0.0294725 0.0330553 -0.000617705 0.00901041 -0.000617705 0.0330553 -0.0432574 -0.00485107 -0.0383583 0.0294725 -0.000617705 -0.00485107 -0.0271042 -0.0383583 -0.000617705 -0.00485107 -0.000617705 -0.0383583 0.242685 0.231263 0.226778 0.216001 0.212156 0.231263 0.210127 0.226778 0.212156 0.231263 0.212156 0.226778 0.17148 0.169169 0.196095 0.169458 0.193263 0.169169 0.216001 0.196095 0.193263 0.169169 0.193263 0.196095 0.178016 0.193781 0.172701 0.210127 0.192152 0.193781 0.169458 0.172701 0.192152 0.193781 0.192152 0.172701 0.216001 0.193263 0.212156 0.169458 0.192152 0.193263 0.210127 0.212156 0.192152 0.193263 0.192152 0.212156 0.00131075 0.00303245 0.0569505 0.0102101 0.0585051 0.00303245 0.103217 0.0569505 0.0585051 0.00303245 0.0585051 0.0569505 0.0414547 0.0734115 0.023844 0.10605 0.0631338 0.0734115 0.0102101 0.023844 0.0631338 0.0734115 0.0631338 0.023844 0.17148 0.140494 0.139653 0.103217 0.10277 0.140494 0.10605 0.139653 0.10277 0.140494 0.10277 0.139653 0.0102101 0.0631338 0.0585051 0.10605 0.10277 0.0631338 0.103217 0.0585051 0.10277 0.0631338 0.10277 0.0585051 0.138864 0.142787 0.112428 0.151683 0.122567 0.142787 0.0868465 0.112428 0.122567 0.142787 0.122567 0.112428 0.178016 0.153917 0.163731 0.123884 0.136919 0.153917 0.151683 0.163731 0.136919 0.153917 0.136919 0.163731 0.0414547 0.0629707 0.086981 0.0868465 0.103732 0.0629707 0.123884 0.086981 0.103732 0.0629707 0.103732 0.086981 0.151683 0.136919 0.122567 0.123884 0.103732 0.136919 0.0868465 0.122567 0.103732 0.136919 0.103732 0.122567 0.17148 0.139653 0.169169 0.10605 0.141029 0.139653 0.169458 0.169169 0.141029 0.139653 0.141029 0.169169 0.0414547 0.086981 0.0734115 0.123884 0.113511 0.086981 0.10605 0.0734115 0.113511 0.086981 0.113511 0.0734115 0.178016 0.172701 0.153917 0.169458 0.146337 0.172701 0.123884 0.153917 0.146337 0.172701 0.146337 0.153917 0.10605 0.113511 0.141029 0.123884 0.146337 0.113511 0.169458 0.141029 0.146337 0.113511 0.146337 0.141029 </DataArray>