<?xml version="1.0" encoding="UTF-8"?>
<VTKFile type="UnstructuredGrid" version="0.1" byte_order="LittleEndian" compressor="vtkZLibDataCompressor">
    <UnstructuredGrid>
        <Piece NumberOfPoints="1920" NumberOfCells="640">
            <Points>
                <DataArray type="Float64" Name="Array" NumberOfComponents="3" format="ascii" RangeMin="0" RangeMax="13.430122386170501">0 4.01568 0 0 3.51372 0 0.51463 3.51372 0 0 3.01176 0 0.51463 3.01176 0 0 3.51372 0 1.02926 3.01176 0 0.51463 3.51372 0 0.51463 3.01176 0 0 3.51372 0 0.51463 3.01176 0 0.51463 3.51372 0 0 2.00784 0 0.51463 2.00784 0 0 2.5098 0 1.02926 2.00784 0 0.51463 2.5098 0 0.51463 2.00784 0 0 3.01176 0 0 2.5098 0 0.51463 2.5098 0 0.51463 2.00784 0 0.51463 2.5098 0 0 2.5098 0 2.05852 2.00784 0 1.54389 2.5098 0 1.54389 2.00784 0 1.02926 3.01176 0 1.02926 2.5098 0 1.54389 2.5098 0 1.02926 2.00784 0 1.54389 2.00784 0 1.02926 2.5098 0 1.54389 2.5098 0 1.02926 2.5098 0 1.54389 2.00784 0 0 3.01176 0 0.51463 2.5098 0 0.51463 3.01176 0 1.02926 2.00784 0 1.02926 2.5098 0 0.51463 2.5098 0 1.02926 3.01176 0 0.51463 3.01176 0 1.02926 2.5098 0 0.51463 2.5098 0 1.02926 2.5098 0 0.51463 3.01176 0 0 0 0 0.51463 0 0 0 0.50196 0 1.02926 0 0 0.51463 0.50196 0 0.51463 0 0 0 1.00392 0 0 0.50196 0 0.51463 0.50196 0 0.51463 0 0 0.51463 0.50196 0 0 0.50196 0 2.05852 0 0 1.54389 0.50196 0 1.54389 0 0 1.02926 1.00392 0 1.02926 0.50196 0 1.54389 0.50196 0 1.02926 0 0 1.54389 0 0 1.02926 0.50196 0 1.54389 0.50196 0 1.02926 0.50196 0 1.54389 0 0 0 2.00784 0 0 1.50588 0 0.51463 1.50588 0 0 1.00392 0 0.51463 1.00392 0 0 1.50588 0 1.02926 1.00392 0 0.51463 1.50588 0 0.51463 1.00392 0 0 1.50588 0 0.51463 1.00392 0 0.51463 1.50588 0 1.02926 0 0 1.02926 0.50196 0 0.51463 0.50196 0 1.02926 1.00392 0 0.51463 1.00392 0 1.02926 0.50196 0 0 1.00392 0 0.51463 0.50196 0 0.51463 1.00392 0 1.02926 0.50196 0 0.51463 1.00392 0 0.51463 0.50196 0 4.11704 0 0 3.60241 0.50196 0 3.60241 0 0 3.08778 1.00392 0 3.08778 0.50196 0 3.60241 0.50196 0 3.08778 0 0 3.60241 0 0 3.08778 0.50196 0 3.60241 0.50196 0 3.08778 0.50196 0 3.60241 0 0 2.05852 2.00784 0 2.05852 1.50588 0 2.57315 1.50588 0 2.05852 1.00392 0 2.57315 1.00392 0 2.05852 1.50588 0 3.08778 1.00392 0 2.57315 1.50588 0 2.57315 1.00392 0 2.05852 1.50588 0 2.57315 1.00392 0 2.57315 1.50588 0 2.05852 0 0 2.57315 0 0 2.05852 0.50196 0 3.08778 0 0 2.57315 0.50196 0 2.57315 0 0 2.05852 1.00392 0 2.05852 0.50196 0 2.57315 0.50196 0 2.57315 0 0 2.57315 0.50196 0 2.05852 0.50196 0 3.08778 1.00392 0 2.57315 1.00392 0 3.08778 0.50196 0 2.05852 1.00392 0 2.57315 0.50196 0 2.57315 1.00392 0 3.08778 0 0 3.08778 0.50196 0 2.57315 0.50196 0 2.57315 1.00392 0 2.57315 0.50196 0 3.08778 0.50196 0 0 2.00784 0 0.51463 1.50588 0 0.51463 2.00784 0 1.02926 1.00392 0 1.02926 1.50588 0 0.51463 1.50588 0 1.02926 2.00784 0 0.51463 2.00784 0 1.02926 1.50588 0 0.51463 1.50588 0 1.02926 1.50588 0 0.51463 2.00784 0 2.05852 0 0 2.05852 0.50196 0 1.54389 0.50196 0 2.05852 1.00392 0 1.54389 1.00392 0 2.05852 0.50196 0 1.02926 1.00392 0 1.54389 0.50196 0 1.54389 1.00392 0 2.05852 0.50196 0 1.54389 1.00392 0 1.54389 0.50196 0 2.05852 2.00784 0 1.54389 2.00784 0 2.05852 1.50588 0 1.02926 2.00784 0 1.54389 1.50588 0 1.54389 2.00784 0 2.05852 1.00392 0 2.05852 1.50588 0 1.54389 1.50588 0 1.54389 2.00784 0 1.54389 1.50588 0 2.05852 1.50588 0 1.02926 1.00392 0 1.54389 1.00392 0 1.02926 1.50588 0 2.05852 1.00392 0 1.54389 1.50588 0 1.54389 1.00392 0 1.02926 2.00784 0 1.02926 1.50588 0 1.54389 1.50588 0 1.54389 1.00392 0 1.54389 1.50588 0 1.02926 1.50588 0 0 8.03136 0 0 7.5294 0 0.459713 7.72447 0 0 7.02744 0 0.459713 7.22251 0 0 7.5294 0 0.919426 7.41757 0 0.459713 7.72447 0 0.459713 7.22251 0 0 7.5294 0 0.459713 7.22251 0 0.459713 7.72447 0 0 6.02352 0 0.459713 6.21859 0 0 6.52548 0 0.919426 6.41365 0 0.459713 6.72055 0 0.459713 6.21859 0 0 7.02744 0 0 6.52548 0 0.459713 6.72055 0 0.459713 6.21859 0 0.459713 6.72055 0 0 6.52548 0 1.83885 6.80379 0 1.37914 7.11068 0 1.37914 6.60872 0 0.919426 7.41757 0 0.919426 6.91561 0 1.37914 7.11068 0 0.919426 6.41365 0 1.37914 6.60872 0 0.919426 6.91561 0 1.37914 7.11068 0 0.919426 6.91561 0 1.37914 6.60872 0 0 7.02744 0 0.459713 6.72055 0 0.459713 7.22251 0 0.919426 6.41365 0 0.919426 6.91561 0 0.459713 6.72055 0 0.919426 7.41757 0 0.459713 7.22251 0 0.919426 6.91561 0 0.459713 6.72055 0 0.919426 6.91561 0 0.459713 7.22251 0 0 4.01568 0 0.459713 4.21075 0 0 4.51764 0 0.919426 4.40582 0 0.459713 4.71271 0 0.459713 4.21075 0 0 5.0196 0 0 4.51764 0 0.459713 4.71271 0 0.459713 4.21075 0 0.459713 4.71271 0 0 4.51764 0 1.83885 4.79595 0 1.37914 5.10284 0 1.37914 4.60088 0 0.919426 5.40973 0 0.919426 4.90778 0 1.37914 5.10284 0 0.919426 4.40582 0 1.37914 4.60088 0 0.919426 4.90778 0 1.37914 5.10284 0 0.919426 4.90778 0 1.37914 4.60088 0 0 6.02352 0 0 5.52156 0 0.459713 5.71663 0 0 5.0196 0 0.459713 5.21467 0 0 5.52156 0 0.919426 5.40973 0 0.459713 5.71663 0 0.459713 5.21467 0 0 5.52156 0 0.459713 5.21467 0 0.459713 5.71663 0 0.919426 4.40582 0 0.919426 4.90778 0 0.459713 4.71271 0 0.919426 5.40973 0 0.459713 5.21467 0 0.919426 4.90778 0 0 5.0196 0 0.459713 4.71271 0 0.459713 5.21467 0 0.919426 4.90778 0 0.459713 5.21467 0 0.459713 4.71271 0 3.6777 5.57623 0 3.21799 5.88312 0 3.21799 5.38116 0 2.75828 6.19001 0 2.75828 5.68805 0 3.21799 5.88312 0 2.75828 5.18609 0 3.21799 5.38116 0 2.75828 5.68805 0 3.21799 5.88312 0 2.75828 5.68805 0 3.21799 5.38116 0 1.83885 6.80379 0 1.83885 6.30183 0 2.29856 6.4969 0 1.83885 5.79987 0 2.29856 5.99494 0 1.83885 6.30183 0 2.75828 6.19001 0 2.29856 6.4969 0 2.29856 5.99494 0 1.83885 6.30183 0 2.29856 5.99494 0 2.29856 6.4969 0 1.83885 4.79595 0 2.29856 4.99102 0 1.83885 5.29791 0 2.75828 5.18609 0 2.29856 5.49298 0 2.29856 4.99102 0 1.83885 5.79987 0 1.83885 5.29791 0 2.29856 5.49298 0 2.29856 4.99102 0 2.29856 5.49298 0 1.83885 5.29791 0 2.75828 6.19001 0 2.29856 5.99494 0 2.75828 5.68805 0 1.83885 5.79987 0 2.29856 5.49298 0 2.29856 5.99494 0 2.75828 5.18609 0 2.75828 5.68805 0 2.29856 5.49298 0 2.29856 5.99494 0 2.29856 5.49298 0 2.75828 5.68805 0 0 6.02352 0 0.459713 5.71663 0 0.459713 6.21859 0 0.919426 5.40973 0 0.919426 5.91169 0 0.459713 5.71663 0 0.919426 6.41365 0 0.459713 6.21859 0 0.919426 5.91169 0 0.459713 5.71663 0 0.919426 5.91169 0 0.459713 6.21859 0 1.83885 4.79595 0 1.83885 5.29791 0 1.37914 5.10284 0 1.83885 5.79987 0 1.37914 5.6048 0 1.83885 5.29791 0 0.919426 5.40973 0 1.37914 5.10284 0 1.37914 5.6048 0 1.83885 5.29791 0 1.37914 5.6048 0 1.37914 5.10284 0 1.83885 6.80379 0 1.37914 6.60872 0 1.83885 6.30183 0 0.919426 6.41365 0 1.37914 6.10676 0 1.37914 6.60872 0 1.83885 5.79987 0 1.83885 6.30183 0 1.37914 6.10676 0 1.37914 6.60872 0 1.37914 6.10676 0 1.83885 6.30183 0 0.919426 5.40973 0 1.37914 5.6048 0 0.919426 5.91169 0 1.83885 5.79987 0 1.37914 6.10676 0 1.37914 5.6048 0 0.919426 6.41365 0 0.919426 5.91169 0 1.37914 6.10676 0 1.37914 5.6048 0 1.37914 6.10676 0 0.919426 5.91169 0 0 8.03136 0 0.459713 7.72447 0 0.521991 8.2633 0 0.919426 7.41757 0 0.981704 7.95641 0 0.459713 7.72447 0 1.04398 8.49525 0 0.521991 8.2633 0 0.981704 7.95641 0 0.459713 7.72447 0 0.981704 7.95641 0 0.521991 8.2633 0 1.83885 6.80379 0 1.90113 7.34263 0 1.37914 7.11068 0 1.96341 7.88147 0 1.44142 7.64952 0 1.90113 7.34263 0 0.919426 7.41757 0 1.37914 7.11068 0 1.44142 7.64952 0 1.90113 7.34263 0 1.44142 7.64952 0 1.37914 7.11068 0 2.08796 8.95915 0 1.56597 8.7272 0 2.02569 8.42031 0 1.04398 8.49525 0 1.50369 8.18836 0 1.56597 8.7272 0 1.96341 7.88147 0 2.02569 8.42031 0 1.50369 8.18836 0 1.56597 8.7272 0 1.50369 8.18836 0 2.02569 8.42031 0 0.919426 7.41757 0 1.44142 7.64952 0 0.981704 7.95641 0 1.96341 7.88147 0 1.50369 8.18836 0 1.44142 7.64952 0 1.04398 8.49525 0 0.981704 7.95641 0 1.50369 8.18836 0 1.44142 7.64952 0 1.50369 8.18836 0 0.981704 7.95641 0 3.6777 5.57623 0 3.73998 6.11507 0 3.21799 5.88312 0 3.80226 6.6539 0 3.28027 6.42196 0 3.73998 6.11507 0 2.75828 6.19001 0 3.21799 5.88312 0 3.28027 6.42196 0 3.73998 6.11507 0 3.28027 6.42196 0 3.21799 5.88312 0 3.92682 7.73158 0 3.40482 7.49963 0 3.86454 7.19274 0 2.88283 7.26769 0 3.34255 6.96079 0 3.40482 7.49963 0 3.80226 6.6539 0 3.86454 7.19274 0 3.34255 6.96079 0 3.40482 7.49963 0 3.34255 6.96079 0 3.86454 7.19274 0 1.83885 6.80379 0 2.29856 6.4969 0 2.36084 7.03574 0 2.75828 6.19001 0 2.82056 6.72885 0 2.29856 6.4969 0 2.88283 7.26769 0 2.36084 7.03574 0 2.82056 6.72885 0 2.29856 6.4969 0 2.82056 6.72885 0 2.36084 7.03574 0 3.80226 6.6539 0 3.34255 6.96079 0 3.28027 6.42196 0 2.88283 7.26769 0 2.82056 6.72885 0 3.34255 6.96079 0 2.75828 6.19001 0 3.28027 6.42196 0 2.82056 6.72885 0 3.34255 6.96079 0 2.82056 6.72885 0 3.28027 6.42196 0 4.17593 9.88693 0 3.65394 9.65499 0 4.11365 9.3481 0 3.13195 9.42304 0 3.59166 9.11615 0 3.65394 9.65499 0 4.05137 8.80926 0 4.11365 9.3481 0 3.59166 9.11615 0 3.65394 9.65499 0 3.59166 9.11615 0 4.11365 9.3481 0 2.08796 8.95915 0 2.54768 8.65225 0 2.60995 9.19109 0 3.00739 8.34536 0 3.06967 8.8842 0 2.54768 8.65225 0 3.13195 9.42304 0 2.60995 9.19109 0 3.06967 8.8842 0 2.54768 8.65225 0 3.06967 8.8842 0 2.60995 9.19109 0 3.92682 7.73158 0 3.98909 8.27042 0 3.4671 8.03847 0 4.05137 8.80926 0 3.52938 8.57731 0 3.98909 8.27042 0 3.00739 8.34536 0 3.4671 8.03847 0 3.52938 8.57731 0 3.98909 8.27042 0 3.52938 8.57731 0 3.4671 8.03847 0 3.13195 9.42304 0 3.06967 8.8842 0 3.59166 9.11615 0 3.00739 8.34536 0 3.52938 8.57731 0 3.06967 8.8842 0 4.05137 8.80926 0 3.59166 9.11615 0 3.52938 8.57731 0 3.06967 8.8842 0 3.52938 8.57731 0 3.59166 9.11615 0 1.83885 6.80379 0 2.36084 7.03574 0 1.90113 7.34263 0 2.88283 7.26769 0 2.42312 7.57458 0 2.36084 7.03574 0 1.96341 7.88147 0 1.90113 7.34263 0 2.42312 7.57458 0 2.36084 7.03574 0 2.42312 7.57458 0 1.90113 7.34263 0 3.92682 7.73158 0 3.4671 8.03847 0 3.40482 7.49963 0 3.00739 8.34536 0 2.94511 7.80652 0 3.4671 8.03847 0 2.88283 7.26769 0 3.40482 7.49963 0 2.94511 7.80652 0 3.4671 8.03847 0 2.94511 7.80652 0 3.40482 7.49963 0 2.08796 8.95915 0 2.02569 8.42031 0 2.54768 8.65225 0 1.96341 7.881
[...]
            <PointData>
                <DataArray Name="p" type="Float64" format="ascii">1.94567 1.99151 1.98423 2.04978 2.04202 1.99151 2.01481 1.98423 2.04202 1.99151 2.04202 1.98423 2.23094 2.22148 2.13793 2.15844 2.11669 2.22148 2.04978 2.13793 2.11669 2.22148 2.11669 2.13793 1.9857 2.01849 2.05869 2.01481 2.07782 2.01849 2.15844 2.05869 2.07782 2.01849 2.07782 2.05869 2.04978 2.11669 2.04202 2.15844 2.07782 2.11669 2.01481 2.04202 2.07782 2.11669 2.07782 2.04202 15.0283 0.0958787 2.6033 2.37049 3.66424 0.0958787 2.80519 2.6033 3.66424 0.0958787 3.66424 2.6033 1.55186 2.40737 2.41962 2.48395 1.64999 2.40737 2.37049 2.41962 1.64999 2.40737 1.64999 2.41962 2.23094 2.45363 2.39838 2.80519 2.46937 2.45363 2.48395 2.39838 2.46937 2.45363 2.46937 2.39838 2.37049 1.64999 3.66424 2.48395 2.46937 1.64999 2.80519 3.66424 2.46937 1.64999 2.46937 3.66424 1.62869 1.67193 1.65706 1.80896 1.76989 1.67193 1.67933 1.65706 1.76989 1.67193 1.76989 1.65706 1.9857 1.95757 1.92363 2.08992 1.80626 1.95757 1.80896 1.92363 1.80626 1.95757 1.80626 1.92363 1.55186 1.92522 1.83908 1.67933 1.82023 1.92522 2.08992 1.83908 1.82023 1.92522 1.82023 1.83908 1.80896 1.80626 1.76989 2.08992 1.82023 1.80626 1.67933 1.76989 1.82023 1.80626 1.82023 1.76989 2.23094 2.39838 2.22148 2.48395 2.22551 2.39838 2.15844 2.22148 2.22551 2.39838 2.22551 2.22148 1.55186 1.83908 2.40737 2.08992 1.9702 1.83908 2.48395 2.40737 1.9702 1.83908 1.9702 2.40737 1.9857 2.05869 1.95757 2.15844 2.14153 2.05869 2.08992 1.95757 2.14153 2.05869 2.14153 1.95757 2.48395 1.9702 2.22551 2.08992 2.14153 1.9702 2.15844 2.22551 2.14153 1.9702 2.14153 2.22551 1.81715 1.81904 1.81686 1.82415 1.8207 1.81904 1.8152 1.81686 1.8207 1.81904 1.8207 1.81686 1.84471 1.8382 1.83259 1.82933 1.82771 1.8382 1.82415 1.83259 1.82771 1.8382 1.82771 1.83259 1.8064 1.81178 1.81859 1.8152 1.82067 1.81178 1.82933 1.81859 1.82067 1.81178 1.82067 1.81859 1.82415 1.82771 1.8207 1.82933 1.82067 1.82771 1.8152 1.8207 1.82067 1.82771 1.82067 1.8207 1.94567 1.92676 1.90985 1.90525 1.89602 1.92676 1.88237 1.90985 1.89602 1.92676 1.89602 1.90985 1.85471 1.85874 1.88002 1.85765 1.87844 1.85874 1.90525 1.88002 1.87844 1.85874 1.87844 1.88002 1.84471 1.86105 1.85259 1.88237 1.87155 1.86105 1.85765 1.85259 1.87155 1.86105 1.87155 1.85259 1.90525 1.87844 1.89602 1.85765 1.87155 1.87844 1.88237 1.89602 1.87155 1.87844 1.87155 1.89602 1.75848 1.77491 1.78062 1.78828 1.79541 1.77491 1.80446 1.78062 1.79541 1.77491 1.79541 1.78062 1.8064 1.814 1.79868 1.82438 1.80643 1.814 1.78828 1.79868 1.80643 1.814 1.80643 1.79868 1.85471 1.82898 1.83773 1.80446 1.81654 1.82898 1.82438 1.83773 1.81654 1.82898 1.81654 1.83773 1.78828 1.80643 1.79541 1.82438 1.81654 1.80643 1.80446 1.79541 1.81654 1.80643 1.81654 1.79541 1.84471 1.85259 1.8382 1.85765 1.84149 1.85259 1.82933 1.8382 1.84149 1.85259 1.84149 1.8382 1.85471 1.83773 1.85874 1.82438 1.84164 1.83773 1.85765 1.85874 1.84164 1.83773 1.84164 1.85874 1.8064 1.81859 1.814 1.82933 1.82843 1.81859 1.82438 1.814 1.82843 1.81859 1.82843 1.814 1.85765 1.84164 1.84149 1.82438 1.82843 1.84164 1.82933 1.84149 1.82843 1.84164 1.82843 1.84149 1.81715 1.81686 1.81591 1.8152 1.81192 1.81686 1.812 1.81591 1.81192 1.81686 1.81192 1.81591 1.8064 1.79975 1.81178 1.79598 1.80663 1.79975 1.8152 1.81178 1.80663 1.79975 1.80663 1.81178 1.79607 1.8054 1.79476 1.812 1.80451 1.8054 1.79598 1.79476 1.80451 1.8054 1.80451 1.79476 1.8152 1.80663 1.81192 1.79598 1.80451 1.80663 1.812 1.81192 1.80451 1.80663 1.80451 1.81192 1.75848 1.75235 1.77491 1.74762 1.76765 1.75235 1.78828 1.77491 1.76765 1.75235 1.76765 1.77491 1.74079 1.75809 1.74378 1.77496 1.76216 1.75809 1.74762 1.74378 1.76216 1.75809 1.76216 1.74378 1.8064 1.79868 1.79114 1.78828 1.78051 1.79868 1.77496 1.79114 1.78051 1.79868 1.78051 1.79114 1.74762 1.76216 1.76765 1.77496 1.78051 1.76216 1.78828 1.76765 1.78051 1.76216 1.78051 1.76765 1.73282 1.75222 1.73461 1.76937 1.75253 1.75222 1.7364 1.73461 1.75253 1.75222 1.75253 1.73461 1.79607 1.78277 1.78405 1.76923 1.76864 1.78277 1.76937 1.78405 1.76864 1.78277 1.76864 1.78405 1.74079 1.73838 1.75526 1.7364 1.75349 1.73838 1.76923 1.75526 1.75349 1.73838 1.75349 1.75526 1.76937 1.76864 1.75253 1.76923 1.75349 1.76864 1.7364 1.75253 1.75349 1.76864 1.75349 1.75253 1.8064 1.79114 1.79975 1.77496 1.78616 1.79114 1.79598 1.79975 1.78616 1.79114 1.78616 1.79975 1.74079 1.75526 1.75809 1.76923 1.77125 1.75526 1.77496 1.75809 1.77125 1.75526 1.77125 1.75809 1.79607 1.79476 1.78277 1.79598 1.78346 1.79476 1.76923 1.78277 1.78346 1.79476 1.78346 1.78277 1.77496 1.77125 1.78616 1.76923 1.78346 1.77125 1.79598 1.78616 1.78346 1.77125 1.78346 1.78616 1.56784 1.54068 1.54448 1.51146 1.51636 1.54068 1.5214 1.54448 1.51636 1.54068 1.51636 1.54448 1.44693 1.45314 1.47949 1.4603 1.4857 1.45314 1.51146 1.47949 1.4857 1.45314 1.4857 1.47949 1.47614 1.49891 1.46779 1.5214 1.49198 1.49891 1.4603 1.46779 1.49198 1.49891 1.49198 1.46779 1.51146 1.4857 1.51636 1.4603 1.49198 1.4857 1.5214 1.51636 1.49198 1.4857 1.49198 1.51636 1.3569 1.3465 1.37274 1.33801 1.36505 1.3465 1.3916 1.37274 1.36505 1.3465 1.36505 1.37274 1.33716 1.36534 1.33459 1.39295 1.36235 1.36534 1.33801 1.33459 1.36235 1.36534 1.36235 1.33459 1.44693 1.4163 1.41981 1.3916 1.38951 1.4163 1.39295 1.41981 1.38951 1.4163 1.38951 1.41981 1.33801 1.36235 1.36505 1.39295 1.38951 1.36235 1.3916 1.36505 1.38951 1.36235 1.38951 1.36505 1.3789 1.40513 1.3653 1.42972 1.39255 1.40513 1.35387 1.3653 1.39255 1.40513 1.39255 1.3653 1.47614 1.44339 1.45332 1.4086 1.41839 1.44339 1.42972 1.45332 1.41839 1.44339 1.41839 1.45332 1.33716 1.34418 1.37248 1.35387 1.38177 1.34418 1.4086 1.37248 1.38177 1.34418 1.38177 1.37248 1.42972 1.41839 1.39255 1.4086 1.38177 1.41839 1.35387 1.39255 1.38177 1.41839 1.38177 1.39255 1.44693 1.41981 1.45314 1.39295 1.42665 1.41981 1.4603 1.45314 1.42665 1.41981 1.42665 1.45314 1.33716 1.37248 1.36534 1.4086 1.39984 1.37248 1.39295 1.36534 1.39984 1.37248 1.39984 1.36534 1.47614 1.46779 1.44339 1.4603 1.43462 1.46779 1.4086 1.44339 1.43462 1.46779 1.43462 1.44339 1.39295 1.39984 1.42665 1.4086 1.43462 1.39984 1.4603 1.42665 1.43462 1.39984 1.43462 1.42665 1.94567 1.98423 1.92676 2.01481 1.95097 1.98423 1.90525 1.92676 1.95097 1.98423 1.95097 1.92676 1.9857 1.94643 2.01849 1.91409 1.96154 1.94643 2.01481 2.01849 1.96154 1.94643 1.96154 2.01849 1.85471 1.88002 1.88094 1.90525 1.91616 1.88002 1.91409 1.88094 1.91616 1.88002 1.91616 1.88094 2.01481 1.96154 1.95097 1.91409 1.91616 1.96154 1.90525 1.95097 1.91616 1.96154 1.91616 1.95097 1.62869 1.66153 1.67193 1.69808 1.73089 1.66153 1.80896 1.67193 1.73089 1.66153 1.73089 1.67193 1.75803 1.78682 1.727 1.85275 1.79047 1.78682 1.69808 1.727 1.79047 1.78682 1.79047 1.727 1.9857 1.92363 1.89473 1.80896 1.80841 1.92363 1.85275 1.89473 1.80841 1.92363 1.80841 1.89473 1.69808 1.79047 1.73089 1.85275 1.80841 1.79047 1.80896 1.73089 1.80841 1.79047 1.80841 1.73089 1.75848 1.78062 1.76049 1.80446 1.7878 1.78062 1.76315 1.76049 1.7878 1.78062 1.7878 1.76049 1.85471 1.84792 1.82898 1.83028 1.8162 1.84792 1.80446 1.82898 1.8162 1.84792 1.8162 1.82898 1.75803 1.75766 1.80034 1.76315 1.79288 1.75766 1.83028 1.80034 1.79288 1.75766 1.79288 1.80034 1.80446 1.8162 1.7878 1.83028 1.79288 1.8162 1.76315 1.7878 1.79288 1.8162 1.79288 1.7878 1.9857 1.89473 1.94643 1.85275 1.89257 1.89473 1.91409 1.94643 1.89257 1.89473 1.89257 1.94643 1.75803 1.80034 1.78682 1.83028 1.83735 1.80034 1.85275 1.78682 1.83735 1.80034 1.83735 1.78682 1.85471 1.88094 1.84792 1.91409 1.86833 1.88094 1.83028 1.84792 1.86833 1.88094 1.86833 1.84792 1.85275 1.83735 1.89257 1.83028 1.86833 1.83735 1.91409 1.89257 1.86833 1.83735 1.86833 1.89257 1.62869 1.6073 1.66153 1.60088 1.64415 1.6073 1.69808 1.66153 1.64415 1.6073 1.64415 1.66153 1.58956 1.63178 1.59369 1.67334 1.63985 1.63178 1.60088 1.59369 1.63985 1.63178 1.63985 1.59369 1.75803 1.727 1.71575 1.69808 1.69039 1.727 1.67334 1.71575 1.69039 1.727 1.69039 1.71575 1.60088 1.63985 1.64415 1.67334 1.69039 1.63985 1.69808 1.64415 1.69039 1.63985 1.69039 1.64415 1.56784 1.59875 1.57274 1.62769 1.60584 1.59875 1.57847 1.57274 1.60584 1.59875 1.60584 1.57274 1.68059 1.66651 1.65489 1.64775 1.6373 1.66651 1.62769 1.65489 1.6373 1.66651 1.6373 1.65489 1.58956 1.5845 1.62326 1.57847 1.61401 1.5845 1.64775 1.62326 1.61401 1.5845 1.61401 1.62326 1.62769 1.6373 1.60584 1.64775 1.61401 1.6373 1.57847 1.60584 1.61401 1.6373 1.61401 1.60584 1.75848 1.76049 1.74245 1.76315 1.74027 1.76049 1.72445 1.74245 1.74027 1.76049 1.74027 1.74245 1.75803 1.72689 1.75766 1.71206 1.73912 1.72689 1.76315 1.75766 1.73912 1.72689 1.73912 1.75766 1.68059 1.70372 1.69296 1.72445 1.7179 1.70372 1.71206 1.69296 1.7179 1.70372 1.7179 1.69296 1.76315 1.73912 1.74027 1.71206 1.7179 1.73912 1.72445 1.74027 1.7179 1.73912 1.7179 1.74027 1.58956 1.62326 1.63178 1.64775 1.66106 1.62326 1.67334 1.63178 1.66106 1.62326 1.66106 1.63178 1.68059 1.69296 1.66651 1.71206 1.68066 1.69296 1.64775 1.66651 1.68066 1.69296 1.68066 1.66651 1.75803 1.71575 1.72689 1.67334 1.69529 1.71575 1.71206 1.72689 1.69529 1.71575 1.69529 1.72689 1.64775 1.68066 1.66106 1.71206 1.69529 1.68066 1.67334 1.66106 1.69529 1.68066 1.69529 1.66106 1.56784 1.54448 1.57909 1.5214 1.55789 1.54448 1.58985 1.57909 1.55789 1.54448 1.55789 1.57909 1.47614 1.5161 1.49891 1.55142 1.53665 1.5161 1.5214 1.49891 1.53665 1.5161 1.53665 1.49891 1.60912 1.59979 1.58258 1.58985 1.57045 1.59979 1.55142 1.58258 1.57045 1.59979 1.57045 1.58258 1.5214 1.53665 1.55789 1.55142 1.57045 1.53665 1.58985 1.55789 1.57045 1.53665 1.57045 1.55789 1.3789 1.43149 1.40513 1.47865 1.45364 1.43149 1.42972 1.40513 1.45364 1.43149 1.45364 1.40513 1.55434 1.5346 1.51979 1.51493 1.49696 1.5346 1.47865 1.51979 1.49696 1.5346 1.49696 1.51979 1.47614 1.45332 1.49551 1.42972 1.47486 1.45332 1.51493 1.49551 1.47486 1.45332 1.47486 1.49551 1.47865 1.49696 1.45364 1.51493 1.47486 1.49696 1.42972 1.45364 1.47486 1.49696 1.47486 1.45364 1.63614 1.63139 1.62265 1.6252 1.61445 1.63139 1.60501 1.62265 1.61445 1.63139 1.61445 1.62265 1.60912 1.59407 1.61758 1.57969 1.60482 1.59407 1.6252 1.61758 1.60482 1.59407 1.60482 1.61758 1.55434 1.58265 1.5666 1.60501 1.59288 1.58265 1.57969 1.5666 1.59288 1.58265 1.59288 1.5666 1.6252 1.60482 1.61445 1.57969 1.59288 1.60482 1.60501 1.61445 1.59288 1.60482 1.59288 1.61445 1.47614 1.49551 1.5161 1.51493 1.53308 1.49551 1.55142 1.5161 1.53308 1.49551 1.53308 1.5161 1.55434 1.5666 1.5346 1.57969 1.54998 1.5666 1.51493 1.5346 1.54998 1.5666 1.54998 1.5346 1.60912 1.58258 1.59407 1.55142 1.56578 1.58258 1.57969 1.59407 1.56578 1.58258 1.56578 1.59407 1.51493 1.54998 1.53308 1.57969 1.56578 1.54998 1.55142 1.53308 1.56578 1.54998 1.56578 1.53308 1.75848 1.74245 1.73744 1.72445 1.72065 1.74245 1.71822 1.73744 1.72065 1.74245 1.72065 1.73744 1.68059 1.68092 1.70372 1.68267 1.70165 1.68092 1.72445 1.70372 1.70165 1.68092 1.70165 1.70372 1.68364 1.70009 1.68306 1.71822 1.70123 1.70009 1.68267 1.68306 1.70123 1.70009 1.70123 1.68306 1.72445 1.70165 1.72065 1.68267 1.70123 1.70165 1.71822 1.72065 1.70123 1.70165 1.70123 1.72065 1.56784 1.57909 1.59875 1.58985 1.60754 1.57909 1.62769 1.59875 1.60754 1.57909 1.60754 1.59875 1.60912 1.62312 1.59979 1.6399 1.61571 1.62312 1.58985 1.59979 1.61571 1.62312 1.61571 1.59979 1.68059 1.65489 1.65835 1.62769 1.63407 1.65489 1.6399 1.65835 1.63407 1.65489 1.63407 1.65835 1.58985 1.61571 1.60754 1.6399 1.63407 1.61571 1.62769 1.60754 1.63407 1.61571 1.63407 1.60754 1.63614 1.64466 1.63139 1.65566 1.6409 1.64466 1.6252 1.63139 1.6409 1.64466 1.6409 1.63139 1.68364 1.66707 1.6687 1.6493 1.65281 1.66707 1.65566 1.6687 1.65281 1.66707 1.65281 1.6687 1.60912 1.61758 1.63002 1.6252 1.63588 1.61758 1.6493 1.63002 1.63588 1.61758 1.63588 1.63002 1.65566 1.65281 1.6409 1.6493 1.63588 1.65281 1.6252 1.6409 1.63588 1.65281 1.63588 1.6409 1.68059 1.65835 1.68092 1.6399 1.66219 1.65835 1.68267 1.68092 1.66219 1.65835 1.66219 1.68092 1.60912 1.63002 1.62312 1.6493 1.64467 1.63002 1.6399 1.62312 1.64467 1.63002 1.64467 1.62312 1.68364 1.68306 1.66707 1.68267 1.6646 1.68306 1.6493 1.66707 1.6646 1.68306 1.6646 1.66707 1.6399 1.64467 1.66219 1.6493 1.6646 1.64467 1.68267 1.66219 1.6646 1.64467 1.6646 1.66219 1.3789 1.33328 1.34121 1.28654 1.29236 1.33328 1.29934 1.34121 1.29236 1.33328 1.29236 1.34121 1.1977 1.19673 1.24046 1.19729 1.24351 1.19673 1.28654 1.24046 1.24351 1.19673 1.24351 1.24046 1.20127 1.2528 1.19897 1.29934 1.24761 1.2528 1.19729 1.19897 1.24761 1.2528 1.24761 1.19897 1.28654 1.24351 1.29236 1.19729 1.24761 1.24351 1.29934 1.29236 1.24761 1.24351 1.24761 1.29236 1.08868 1.06956 1.10901 1.05111 1.0924 1.06956 1.13229 1.10901 1.0924 1.06956 1.0924 1.10901 1.01783 1.06459 1.03381 1.11027 1.07747 1.06459 1.05111 1.03381 1.07747 1.06459 1.07747 1.03381 1.1977 1.16129 1.15483 1.13229 1.12005 1.16129 1.11027 1.15483 1.12005 1.16129 1.12005 1.15483 1.05111 1.07747 1.0924 1.11027 1.12005 1.07747 1.13229 1.0924 1.12005 1.07747 1.12005 1.0924 0.953734 1.01986 0.971968 1.08405 1.03205 1.01986 0.987959 0.971968 1.03205 1.01986 1.03205 0.971968 1.20127 1.14645 1.14486 1.09653 1.09058 1.14645 1.08405 1.14486 1.09058 1.14645 1.09058 1.14486 1.01783 1.00285 1.05332 0.987959 1.04288 1.00285 1.09653 1.05332 1.04288 1.00285 1.04288 1.05332 1.08405 1.09058 1.03205 1.09653 1.04288 1.09058 0.987959 1.03205 1.04288 1.09058 1.04288 1.03205 1.1977 1.15483 1.19673 1.11027 1.15065 1.15483 1.19729 1.19673 1.15065 1.15483 1.15065 1.19673 1.01783 1.05332 1.06459 1.09653 1.10278 1.05332 1.11027 1.06459 1.10278 1.05332 1.10278 1.06459 1.20127 1.19897 1.14645 1.19729 1.14823 1.19897 1.09653 1.14645 1.14823 1.19897 1.14823 1.14645 1.11027 1.10278 1.15065 1.09653 1.14823 1.10278 1.19729 1.15065 1.14823 1.10278 1.14823 1.15065 1.75848 1.73744 1.75235 1.71822 1.73391 1.73744 1.74762 1.75235 1.73391 1.73744 1.73391 1.75235 1.68364 1.69975 1.70009 1.71442 1.71623 1.69975 1.71822 1.70009 1.71623 1.69975 1.71623 1.70009 1.74079 1.74378 1.72798 1.74762 1.7307 1.74378 1.71442 1.72798 1.7307 1.74378 1.7307 1.72798 1.71822 1.71623 1.73391 1.71442 1.7307 1.71623 1.74762 1.73391 1.7307 1.71623 1.7307 1.73391 1.63614 1.64765 1.64466 1.65854 1.6581 1.64765 1.65566 1.64466 1.6581 1.64765 1.6581 1.64466 1.68026 1.68291 1.66928 1.68423 1.6707 1.68291 1.65854 1.66928 1.6707 1.68291 1.6707 1.66928 1.68364 1.6687 1.68437 1.65566 1.67045 1.6687 1.68423 1.68437 1.67045 1.6687 1.67045 1.68437 1.65854 1.6707 1.6581 1.68423 1.67045 1.6707 1.65566 1.6581 1.67045 1.6707 1.67045 1.6581 1.73282 1.73461 1.71769 1.7364 1.72059 1.73461 1.70419 1.71769 1.72059 1.73461 1.72059 1.71769 1.74079 1.72551 1.73838 1.71023 1.72311 1.72551 1.7364 1.73838 1.72311 1.72551 1.72311 1.73838 1.68026 1.69178 1.69508 1.70419 1.70754 1.69178 1.71023 1.69508 1.70754 1.69178 1.70754 1.69508 1.7364 1.72311 1.72059 1.71023 1.70754 1.72311 1.70419 1.72059 1.70754 1.72311 1.70754 1.72059 1.68364 1.68437 1.69975 1.68423 1.69884 1.68437 1.71442 1.69975 1.69884 1.68437 1.69884 1.69975 1.68026 1.69508 1.68291 1.71023 1.69737 1.69508 1.68423 1.68291 1.69737 1.69508 1.69737 1.68291 1.74079 1.72798 1.72551 1.71442 1.71245 1.72798 1.71023 1.72551 1.71245 1.72798 1.71245 1.72551 1.68423 1.69737 1.69884 1.71023 1.71245 1.69737 1.71442 1.69884 1.71245 1.69737 1.71245 1.69884 </DataArray>