<?xml version="1.0" encoding="UTF-8"?>
<VTKFile type="UnstructuredGrid" version="0.1" byte_order="LittleEndian" compressor="vtkZLibDataCompressor">
    <UnstructuredGrid>
        <Piece NumberOfPoints="1920" NumberOfCells="640">
            <Points>
                <DataArray type="Float64" Name="Array" NumberOfComponents="3" format="ascii" RangeMin="0" RangeMax="23.474543118537198">18.3938 7.70346 0 18.2621 7.54944 0 18.457 7.50784 0 18.1303 7.39542 0 18.3252 7.35382 0 18.2621 7.54944 0 18.5202 7.31222 0 18.457 7.50784 0 18.3252 7.35382 0 18.2621 7.54944 0 18.3252 7.35382 0 18.457 7.50784 0 17.8669 7.08737 0 18.0618 7.04577 0 17.9986 7.24139 0 18.2567 7.00418 0 18.1935 7.1998 0 18.0618 7.04577 0 18.1303 7.39542 0 17.9986 7.24139 0 18.1935 7.1998 0 18.0618 7.04577 0 18.1935 7.1998 0 17.9986 7.24139 0 18.6465 6.92098 0 18.5833 7.1166 0 18.4516 6.96258 0 18.5202 7.31222 0 18.3884 7.1582 0 18.5833 7.1166 0 18.2567 7.00418 0 18.4516 6.96258 0 18.3884 7.1582 0 18.5833 7.1166 0 18.3884 7.1582 0 18.4516 6.96258 0 18.1303 7.39542 0 18.1935 7.1998 0 18.3252 7.35382 0 18.2567 7.00418 0 18.3884 7.1582 0 18.1935 7.1998 0 18.5202 7.31222 0 18.3252 7.35382 0 18.3884 7.1582 0 18.1935 7.1998 0 18.3884 7.1582 0 18.3252 7.35382 0 17.3399 6.47128 0 17.5348 6.42969 0 17.4717 6.62531 0 17.7297 6.38809 0 17.6666 6.58371 0 17.5348 6.42969 0 17.6034 6.77933 0 17.4717 6.62531 0 17.6666 6.58371 0 17.5348 6.42969 0 17.6666 6.58371 0 17.4717 6.62531 0 18.1196 6.30489 0 18.0564 6.50051 0 17.9247 6.34649 0 17.9932 6.69613 0 17.8615 6.54211 0 18.0564 6.50051 0 17.7297 6.38809 0 17.9247 6.34649 0 17.8615 6.54211 0 18.0564 6.50051 0 17.8615 6.54211 0 17.9247 6.34649 0 17.8669 7.08737 0 17.7351 6.93335 0 17.93 6.89175 0 17.6034 6.77933 0 17.7983 6.73773 0 17.7351 6.93335 0 17.9932 6.69613 0 17.93 6.89175 0 17.7983 6.73773 0 17.7351 6.93335 0 17.7983 6.73773 0 17.93 6.89175 0 17.7297 6.38809 0 17.8615 6.54211 0 17.6666 6.58371 0 17.9932 6.69613 0 17.7983 6.73773 0 17.8615 6.54211 0 17.6034 6.77933 0 17.6666 6.58371 0 17.7983 6.73773 0 17.8615 6.54211 0 17.7983 6.73773 0 17.6666 6.58371 0 18.8992 6.1385 0 18.836 6.33412 0 18.7043 6.1801 0 18.7729 6.52974 0 18.6411 6.37572 0 18.836 6.33412 0 18.5094 6.2217 0 18.7043 6.1801 0 18.6411 6.37572 0 18.836 6.33412 0 18.6411 6.37572 0 18.7043 6.1801 0 18.6465 6.92098 0 18.5148 6.76696 0 18.7097 6.72536 0 18.383 6.61294 0 18.578 6.57134 0 18.5148 6.76696 0 18.7729 6.52974 0 18.7097 6.72536 0 18.578 6.57134 0 18.5148 6.76696 0 18.578 6.57134 0 18.7097 6.72536 0 18.1196 6.30489 0 18.3145 6.2633 0 18.2513 6.45891 0 18.5094 6.2217 0 18.4462 6.41732 0 18.3145 6.2633 0 18.383 6.61294 0 18.2513 6.45891 0 18.4462 6.41732 0 18.3145 6.2633 0 18.4462 6.41732 0 18.2513 6.45891 0 18.7729 6.52974 0 18.578 6.57134 0 18.6411 6.37572 0 18.383 6.61294 0 18.4462 6.41732 0 18.578 6.57134 0 18.5094 6.2217 0 18.6411 6.37572 0 18.4462 6.41732 0 18.578 6.57134 0 18.4462 6.41732 0 18.6411 6.37572 0 17.8669 7.08737 0 17.93 6.89175 0 18.0618 7.04577 0 17.9932 6.69613 0 18.1249 6.85015 0 17.93 6.89175 0 18.2567 7.00418 0 18.0618 7.04577 0 18.1249 6.85015 0 17.93 6.89175 0 18.1249 6.85015 0 18.0618 7.04577 0 18.1196 6.30489 0 18.2513 6.45891 0 18.0564 6.50051 0 18.383 6.61294 0 18.1881 6.65453 0 18.2513 6.45891 0 17.9932 6.69613 0 18.0564 6.50051 0 18.1881 6.65453 0 18.2513 6.45891 0 18.1881 6.65453 0 18.0564 6.50051 0 18.6465 6.92098 0 18.4516 6.96258 0 18.5148 6.76696 0 18.2567 7.00418 0 18.3199 6.80856 0 18.4516 6.96258 0 18.383 6.61294 0 18.5148 6.76696 0 18.3199 6.80856 0 18.4516 6.96258 0 18.3199 6.80856 0 18.5148 6.76696 0 17.9932 6.69613 0 18.1881 6.65453 0 18.1249 6.85015 0 18.383 6.61294 0 18.3199 6.80856 0 18.1881 6.65453 0 18.2567 7.00418 0 18.1249 6.85015 0 18.3199 6.80856 0 18.1881 6.65453 0 18.3199 6.80856 0 18.1249 6.85015 0 17.3399 6.47128 0 17.3572 6.22463 0 17.5348 6.42969 0 17.3746 5.97797 0 17.5522 6.18303 0 17.3572 6.22463 0 17.7297 6.38809 0 17.5348 6.42969 0 17.5522 6.18303 0 17.3572 6.22463 0 17.5522 6.18303 0 17.5348 6.42969 0 17.4092 5.48466 0 17.5868 5.68972 0 17.3919 5.73132 0 17.7644 5.89478 0 17.5695 5.93638 0 17.5868 5.68972 0 17.3746 5.97797 0 17.3919 5.73132 0 17.5695 5.93638 0 17.5868 5.68972 0 17.5695 5.93638 0 17.3919 5.73132 0 18.1196 6.30489 0 17.9247 6.34649 0 17.942 6.09984 0 17.7297 6.38809 0 17.7471 6.14143 0 17.9247 6.34649 0 17.7644 5.89478 0 17.942 6.09984 0 17.7471 6.14143 0 17.9247 6.34649 0 17.7471 6.14143 0 17.942 6.09984 0 17.3746 5.97797 0 17.5695 5.93638 0 17.5522 6.18303 0 17.7644 5.89478 0 17.7471 6.14143 0 17.5695 5.93638 0 17.7297 6.38809 0 17.5522 6.18303 0 17.7471 6.14143 0 17.5695 5.93638 0 17.7471 6.14143 0 17.5522 6.18303 0 17.4786 4.49804 0 17.6562 4.7031 0 17.4612 4.7447 0 17.8337 4.90816 0 17.6388 4.94975 0 17.6562 4.7031 0 17.4439 4.99135 0 17.4612 4.7447 0 17.6388 4.94975 0 17.6562 4.7031 0 17.6388 4.94975 0 17.4612 4.7447 0 18.1889 5.31827 0 17.994 5.35987 0 18.0113 5.11321 0 17.7991 5.40147 0 17.8164 5.15481 0 17.994 5.35987 0 17.8337 4.90816 0 18.0113 5.11321 0 17.8164 5.15481 0 17.994 5.35987 0 17.8164 5.15481 0 18.0113 5.11321 0 17.4092 5.48466 0 17.4266 5.23801 0 17.6042 5.44306 0 17.4439 4.99135 0 17.6215 5.19641 0 17.4266 5.23801 0 17.7991 5.40147 0 17.6042 5.44306 0 17.6215 5.19641 0 17.4266 5.23801 0 17.6215 5.19641 0 17.6042 5.44306 0 17.8337 4.90816 0 17.8164 5.15481 0 17.6388 4.94975 0 17.7991 5.40147 0 17.6215 5.19641 0 17.8164 5.15481 0 17.4439 4.99135 0 17.6388 4.94975 0 17.6215 5.19641 0 17.8164 5.15481 0 17.6215 5.19641 0 17.6388 4.94975 0 18.8992 6.1385 0 18.7043 6.1801 0 18.7216 5.93344 0 18.5094 6.2217 0 18.5267 5.97504 0 18.7043 6.1801 0 18.5441 5.72839 0 18.7216 5.93344 0 18.5267 5.97504 0 18.7043 6.1801 0 18.5267 5.97504 0 18.7216 5.93344 0 18.1196 6.30489 0 18.1369 6.05824 0 18.3145 6.2633 0 18.1542 5.81158 0 18.3318 6.01664 0 18.1369 6.05824 0 18.5094 6.2217 0 18.3145 6.2633 0 18.3318 6.01664 0 18.1369 6.05824 0 18.3318 6.01664 0 18.3145 6.2633 0 18.1889 5.31827 0 18.3665 5.52333 0 18.1716 5.56493 0 18.5441 5.72839 0 18.3491 5.76998 0 18.3665 5.52333 0 18.1542 5.81158 0 18.1716 5.56493 0 18.3491 5.76998 0 18.3665 5.52333 0 18.3491 5.76998 0 18.1716 5.56493 0 18.5094 6.2217 0 18.3318 6.01664 0 18.5267 5.97504 0 18.1542 5.81158 0 18.3491 5.76998 0 18.3318 6.01664 0 18.5441 5.72839 0 18.5267 5.97504 0 18.3491 5.76998 0 18.3318 6.01664 0 18.3491 5.76998 0 18.5267 5.97504 0 17.4092 5.48466 0 17.6042 5.44306 0 17.5868 5.68972 0 17.7991 5.40147 0 17.7817 5.64812 0 17.6042 5.44306 0 17.7644 5.89478 0 17.5868 5.68972 0 17.7817 5.64812 0 17.6042 5.44306 0 17.7817 5.64812 0 17.5868 5.68972 0 18.1889 5.31827 0 18.1716 5.56493 0 17.994 5.35987 0 18.1542 5.81158 0 17.9767 5.60652 0 18.1716 5.56493 0 17.7991 5.40147 0 17.994 5.35987 0 17.9767 5.60652 0 18.1716 5.56493 0 17.9767 5.60652 0 17.994 5.35987 0 18.1196 6.30489 0 17.942 6.09984 0 18.1369 6.05824 0 17.7644 5.89478 0 17.9593 5.85318 0 17.942 6.09984 0 18.1542 5.81158 0 18.1369 6.05824 0 17.9593 5.85318 0 17.942 6.09984 0 17.9593 5.85318 0 18.1369 6.05824 0 17.7991 5.40147 0 17.9767 5.60652 0 17.7817 5.64812 0 18.1542 5.81158 0 17.9593 5.85318 0 17.9767 5.60652 0 17.7644 5.89478 0 17.7817 5.64812 0 17.9593 5.85318 0 17.9767 5.60652 0 17.9593 5.85318 0 17.7817 5.64812 0 19.2281 9.11094 0 19.1238 8.935 0 19.4015 8.91057 0 19.0196 8.75907 0 19.2972 8.73463 0 19.1238 8.935 0 19.5748 8.71019 0 19.4015 8.91057 0 19.2972 8.73463 0 19.1238 8.935 0 19.2972 8.73463 0 19.4015 8.91057 0 18.811 8.4072 0 19.0886 8.38276 0 18.9153 8.58313 0 19.3662 8.35832 0 19.1929 8.5587 0 19.0886 8.38276 0 19.0196 8.75907 0 18.9153 8.58313 0 19.1929 8.5587 0 19.0886 8.38276 0 19.1929 8.5587 0 18.9153 8.58313 0 19.9214 8.30945 0 19.7481 8.50982 0 19.6438 8.33389 0 19.5748 8.71019 0 19.4705 8.53426 0 19.7481 8.50982 0 19.3662 8.35832 0 19.6438 8.33389 0 19.4705 8.53426 0 19.7481 8.50982 0 19.4705 8.53426 0 19.6438 8.33389 0 19.0196 8.75907 0 19.1929 8.5587 0 19.2972 8.73463 0 19.3662 8.35832 0 19.4705 8.53426 0 19.1929 8.5587 0 19.5748 8.71019 0 19.2972 8.73463 0 19.4705 8.53426 0 19.1929 8.5587 0 19.4705 8.53426 0 19.2972 8.73463 0 18.3938 7.70346 0 18.6714 7.67902 0 18.4981 7.87939 0 18.949 7.65458 0 18.7757 7.85496 0 18.6714 7.67902 0 18.6024 8.05533 0 18.4981 7.87939 0 18.7757 7.85496 0 18.6714 7.67902 0 18.7757 7.85496 0 18.4981 7.87939 0 19.5043 7.60571 0 19.3309 7.80608 0 19.2267 7.63015 0 19.1576 8.00645 0 19.0533 7.83052 0 19.3309 7.80608 0 18.949 7.65458 0 19.2267 7.63015 0 19.0533 7.83052 0 19.3309 7.80608 0 19.0533 7.83052 0 19.2267 7.63015 0 18.811 8.4072 0 18.7067 8.23126 0 18.9843 8.20683 0 18.6024 8.05533 0 18.88 8.03089 0 18.7067 8.23126 0 19.1576 8.00645 0 18.9843 8.20683 0 18.88 8.03089 0 18.7067 8.23126 0 18.88 8.03089 0 18.9843 8.20683 0 18.949 7.65458 0 19.0533 7.83052 0 18.7757 7.85496 0 19.1576 8.00645 0 18.88 8.03089 0 19.0533 7.83052 0 18.6024 8.05533 0 18.7757 7.85496 0 18.88 8.03089 0 19.0533 7.83052 0 18.88 8.03089 0 18.7757 7.85496 0 20.6147 7.50796 0 20.4414 7.70833 0 20.3371 7.5324 0 20.2681 7.9087 0 20.1638 7.73277 0 20.4414 7.70833 0 20.0595 7.55684 0 20.3371 7.5324 0 20.1638 7.73277 0 20.4414 7.70833 0 20.1638 7.73277 0 20.3371 7.5324 0 19.9214 8.30945 0 19.8171 8.13351 0 20.0948 8.10908 0 19.7128 7.95758 0 19.9905 7.93314 0 19.8171 8.13351 0 20.2681 7.9087 0 20.0948 8.10908 0 19.9905 7.93314 0 19.8171 8.13351 0 19.9905 7.93314 0 20.0948 8.10908 0 19.5043 7.60571 0 19.7819 7.58127 0 19.6086 7.78164 0 20.0595 7.55684 0 19.8862 7.75721 0 19.7819 7.58127 0 19.7128 7.95758 0 19.6086 7.78164 0 19.8862 7.75721 0 19.7819 7.58127 0 19.8862 7.75721 0 19.6086 7.78164 0 20.2681 7.9087 0 19.9905 7.93314 0 20.1638 7.73277 0 19.7128 7.95758 0 19.8862 7.75721 0 19.9905 7.93314 0 20.0595 7.55684 0 20.1638 7.73277 0 19.8862 7.75721 0 19.9905 7.93314 0 19.8862 7.75721 0 20.1638 7.73277 0 18.811 8.4072 0 18.9843 8.20683 0 19.0886 8.38276 0 19.1576 8.00645 0 19.2619 8.18239 0 18.9843 8.20683 0 19.3662 8.35832 0 19.0886 8.38276 0 19.2619 8.18239 0 18.9843 8.20683 0 19.2619 8.18239 0 19.0886 8.38276 0 19.5043 7.60571 
[...]
            <PointData>
                <DataArray Name="p" type="Float64" format="ascii">-0.380598 -0.429331 -0.358476 -0.478111 -0.404673 -0.429331 -0.335398 -0.358476 -0.404673 -0.429331 -0.404673 -0.358476 -0.567373 -0.489248 -0.525103 -0.415456 -0.449036 -0.489248 -0.478111 -0.525103 -0.449036 -0.489248 -0.449036 -0.525103 -0.281609 -0.310061 -0.346239 -0.335398 -0.377342 -0.310061 -0.415456 -0.346239 -0.377342 -0.310061 -0.377342 -0.346239 -0.478111 -0.449036 -0.404673 -0.415456 -0.377342 -0.449036 -0.335398 -0.404673 -0.377342 -0.449036 -0.377342 -0.404673 -0.613347 -0.543556 -0.62791 -0.47442 -0.55115 -0.543556 -0.62282 -0.62791 -0.55115 -0.543556 -0.55115 -0.62791 -0.348122 -0.409944 -0.409834 -0.469172 -0.478801 -0.409944 -0.47442 -0.409834 -0.478801 -0.409944 -0.478801 -0.409834 -0.567373 -0.601304 -0.522021 -0.62282 -0.54406 -0.601304 -0.469172 -0.522021 -0.54406 -0.601304 -0.54406 -0.522021 -0.47442 -0.478801 -0.55115 -0.469172 -0.54406 -0.478801 -0.62282 -0.55115 -0.54406 -0.478801 -0.54406 -0.55115 -0.139312 -0.177225 -0.186066 -0.214643 -0.229173 -0.177225 -0.236337 -0.186066 -0.229173 -0.177225 -0.229173 -0.186066 -0.281609 -0.310838 -0.249674 -0.332877 -0.271538 -0.310838 -0.214643 -0.249674 -0.271538 -0.310838 -0.271538 -0.249674 -0.348122 -0.29044 -0.34554 -0.236337 -0.285203 -0.29044 -0.332877 -0.34554 -0.285203 -0.29044 -0.285203 -0.34554 -0.214643 -0.271538 -0.229173 -0.332877 -0.285203 -0.271538 -0.236337 -0.229173 -0.285203 -0.271538 -0.285203 -0.229173 -0.567373 -0.522021 -0.489248 -0.469172 -0.447076 -0.522021 -0.415456 -0.489248 -0.447076 -0.522021 -0.447076 -0.489248 -0.348122 -0.34554 -0.409944 -0.332877 -0.398828 -0.34554 -0.469172 -0.409944 -0.398828 -0.34554 -0.398828 -0.409944 -0.281609 -0.346239 -0.310838 -0.415456 -0.376619 -0.346239 -0.332877 -0.310838 -0.376619 -0.346239 -0.376619 -0.310838 -0.469172 -0.398828 -0.447076 -0.332877 -0.376619 -0.398828 -0.415456 -0.447076 -0.376619 -0.398828 -0.376619 -0.447076 -0.613347 -0.504244 -0.543556 -0.393007 -0.446715 -0.504244 -0.47442 -0.543556 -0.446715 -0.504244 -0.446715 -0.543556 -0.194546 -0.255014 -0.288825 -0.30227 -0.348104 -0.255014 -0.393007 -0.288825 -0.348104 -0.255014 -0.348104 -0.288825 -0.348122 -0.409834 -0.334761 -0.47442 -0.389187 -0.409834 -0.30227 -0.334761 -0.389187 -0.409834 -0.389187 -0.334761 -0.393007 -0.348104 -0.446715 -0.30227 -0.389187 -0.348104 -0.47442 -0.446715 -0.389187 -0.348104 -0.389187 -0.446715 0.0898632 0.0371188 0.031503 -0.0112177 -0.0244453 0.0371188 -0.0354225 0.031503 -0.0244453 0.0371188 -0.0244453 0.031503 -0.0899229 -0.116783 -0.0541856 -0.143437 -0.0739654 -0.116783 -0.0112177 -0.0541856 -0.0739654 -0.116783 -0.0739654 -0.0541856 -0.194546 -0.110137 -0.169976 -0.0354225 -0.0932161 -0.110137 -0.143437 -0.169976 -0.0932161 -0.110137 -0.0932161 -0.169976 -0.0112177 -0.0739654 -0.0244453 -0.143437 -0.0932161 -0.0739654 -0.0354225 -0.0244453 -0.0932161 -0.0739654 -0.0932161 -0.0244453 -0.139312 -0.186066 -0.143094 -0.236337 -0.186646 -0.186066 -0.135474 -0.143094 -0.186646 -0.186066 -0.186646 -0.143094 -0.348122 -0.282483 -0.29044 -0.215358 -0.233169 -0.282483 -0.236337 -0.29044 -0.233169 -0.282483 -0.233169 -0.29044 -0.0899229 -0.117458 -0.150641 -0.135474 -0.174455 -0.117458 -0.215358 -0.150641 -0.174455 -0.117458 -0.174455 -0.150641 -0.236337 -0.233169 -0.186646 -0.215358 -0.174455 -0.233169 -0.135474 -0.186646 -0.174455 -0.233169 -0.174455 -0.186646 -0.194546 -0.169976 -0.255014 -0.143437 -0.219661 -0.169976 -0.30227 -0.255014 -0.219661 -0.169976 -0.219661 -0.255014 -0.0899229 -0.150641 -0.116783 -0.215358 -0.184977 -0.150641 -0.143437 -0.116783 -0.184977 -0.150641 -0.184977 -0.116783 -0.348122 -0.334761 -0.282483 -0.30227 -0.258242 -0.334761 -0.215358 -0.282483 -0.258242 -0.334761 -0.258242 -0.282483 -0.143437 -0.184977 -0.219661 -0.215358 -0.258242 -0.184977 -0.30227 -0.219661 -0.258242 -0.184977 -0.258242 -0.219661 -0.118363 -0.148405 -0.0783807 -0.178745 -0.103777 -0.148405 -0.0370204 -0.0783807 -0.103777 -0.148405 -0.103777 -0.0783807 -0.240707 -0.158028 -0.209385 -0.0840103 -0.130396 -0.158028 -0.178745 -0.209385 -0.130396 -0.158028 -0.130396 -0.209385 0.0401819 0.00294356 -0.0179892 -0.0370204 -0.0597505 0.00294356 -0.0840103 -0.0179892 -0.0597505 0.00294356 -0.0597505 -0.0179892 -0.178745 -0.130396 -0.103777 -0.0840103 -0.0597505 -0.130396 -0.0370204 -0.103777 -0.0597505 -0.130396 -0.0597505 -0.103777 -0.380598 -0.284915 -0.34299 -0.19833 -0.250572 -0.284915 -0.307125 -0.34299 -0.250572 -0.284915 -0.250572 -0.34299 -0.0506896 -0.09204 -0.120284 -0.137473 -0.167045 -0.09204 -0.19833 -0.120284 -0.167045 -0.09204 -0.167045 -0.120284 -0.240707 -0.273126 -0.187075 -0.307125 -0.217862 -0.273126 -0.137473 -0.187075 -0.217862 -0.273126 -0.217862 -0.187075 -0.19833 -0.167045 -0.250572 -0.137473 -0.217862 -0.167045 -0.307125 -0.250572 -0.217862 -0.167045 -0.217862 -0.250572 0.153382 0.130263 0.112343 0.10394 0.0853736 0.130263 0.0650699 0.112343 0.0853736 0.130263 0.0853736 0.112343 0.0401819 0.0202998 0.0739054 -0.00157541 0.0547583 0.0202998 0.10394 0.0739054 0.0547583 0.0202998 0.0547583 0.0739054 -0.0506896 0.01094 -0.0252895 0.0650699 0.0336655 0.01094 -0.00157541 -0.0252895 0.0336655 0.01094 0.0336655 -0.0252895 0.10394 0.0547583 0.0853736 -0.00157541 0.0336655 0.0547583 0.0650699 0.0853736 0.0336655 0.0547583 0.0336655 0.0853736 -0.240707 -0.187075 -0.158028 -0.137473 -0.109823 -0.187075 -0.0840103 -0.158028 -0.109823 -0.187075 -0.109823 -0.158028 -0.0506896 -0.0252895 -0.09204 -0.00157541 -0.0654721 -0.0252895 -0.137473 -0.09204 -0.0654721 -0.0252895 -0.0654721 -0.09204 0.0401819 -0.0179892 0.0202998 -0.0840103 -0.0408217 -0.0179892 -0.00157541 0.0202998 -0.0408217 -0.0179892 -0.0408217 0.0202998 -0.137473 -0.0654721 -0.109823 -0.00157541 -0.0408217 -0.0654721 -0.0840103 -0.109823 -0.0408217 -0.0654721 -0.0408217 -0.109823 -0.380598 -0.358476 -0.284915 -0.335398 -0.265128 -0.358476 -0.19833 -0.284915 -0.265128 -0.358476 -0.265128 -0.284915 -0.281609 -0.222925 -0.310061 -0.163179 -0.244763 -0.222925 -0.335398 -0.310061 -0.244763 -0.222925 -0.244763 -0.310061 -0.0506896 -0.120284 -0.105076 -0.19833 -0.180814 -0.120284 -0.163179 -0.105076 -0.180814 -0.120284 -0.180814 -0.105076 -0.335398 -0.244763 -0.265128 -0.163179 -0.180814 -0.244763 -0.19833 -0.265128 -0.180814 -0.244763 -0.180814 -0.265128 -0.139312 -0.113783 -0.177225 -0.0801736 -0.143926 -0.113783 -0.214643 -0.177225 -0.143926 -0.113783 -0.143926 -0.177225 -0.00015897 -0.0585217 -0.0416299 -0.124786 -0.103193 -0.0585217 -0.0801736 -0.0416299 -0.103193 -0.0585217 -0.103193 -0.0416299 -0.281609 -0.249674 -0.198957 -0.214643 -0.172548 -0.249674 -0.124786 -0.198957 -0.172548 -0.249674 -0.172548 -0.198957 -0.0801736 -0.103193 -0.143926 -0.124786 -0.172548 -0.103193 -0.214643 -0.143926 -0.172548 -0.103193 -0.172548 -0.143926 0.153382 0.112343 0.119224 0.0650699 0.0740277 0.112343 0.0818689 0.119224 0.0740277 0.112343 0.0740277 0.119224 -0.0506896 -0.0376965 0.01094 -0.025199 0.0218165 -0.0376965 0.0650699 0.01094 0.0218165 -0.0376965 0.0218165 0.01094 -0.00015897 0.0415977 -0.0126847 0.0818689 0.0320359 0.0415977 -0.025199 -0.0126847 0.0320359 0.0415977 0.0320359 -0.0126847 0.0650699 0.0218165 0.0740277 -0.025199 0.0320359 0.0218165 0.0818689 0.0740277 0.0320359 0.0218165 0.0320359 0.0740277 -0.281609 -0.198957 -0.222925 -0.124786 -0.144671 -0.198957 -0.163179 -0.222925 -0.144671 -0.198957 -0.144671 -0.222925 -0.00015897 -0.0126847 -0.0585217 -0.025199 -0.0747083 -0.0126847 -0.124786 -0.0585217 -0.0747083 -0.0126847 -0.0747083 -0.0585217 -0.0506896 -0.105076 -0.0376965 -0.163179 -0.0900658 -0.105076 -0.025199 -0.0376965 -0.0900658 -0.105076 -0.0900658 -0.0376965 -0.124786 -0.0747083 -0.144671 -0.025199 -0.0900658 -0.0747083 -0.163179 -0.144671 -0.0900658 -0.0747083 -0.0900658 -0.144671 0.27643 0.293323 0.275508 0.310588 0.29301 0.293323 0.272055 0.275508 0.29301 0.293323 0.29301 0.275508 0.332506 0.321605 0.324399 0.305381 0.309699 0.321605 0.310588 0.324399 0.309699 0.321605 0.309699 0.324399 0.255238 0.265665 0.283079 0.272055 0.289833 0.265665 0.305381 0.283079 0.289833 0.265665 0.289833 0.283079 0.310588 0.309699 0.29301 0.305381 0.289833 0.309699 0.272055 0.29301 0.289833 0.309699 0.289833 0.29301 0.309438 0.310685 0.32287 0.308109 0.321952 0.310685 0.331674 0.32287 0.321952 0.310685 0.321952 0.32287 0.287194 0.305527 0.300653 0.318751 0.316411 0.305527 0.308109 0.300653 0.316411 0.305527 0.316411 0.300653 0.332506 0.3348 0.327512 0.331674 0.327638 0.3348 0.318751 0.327512 0.327638 0.3348 0.327638 0.327512 0.308109 0.316411 0.321952 0.318751 0.327638 0.316411 0.331674 0.321952 0.327638 0.316411 0.327638 0.321952 0.153382 0.190386 0.201213 0.218589 0.231597 0.190386 0.238435 0.201213 0.231597 0.190386 0.231597 0.201213 0.255238 0.271687 0.240053 0.283283 0.254854 0.271687 0.218589 0.240053 0.254854 0.271687 0.254854 0.240053 0.287194 0.26683 0.288391 0.238435 0.264164 0.26683 0.283283 0.288391 0.264164 0.26683 0.264164 0.288391 0.218589 0.254854 0.231597 0.283283 0.264164 0.254854 0.238435 0.231597 0.264164 0.254854 0.264164 0.231597 0.332506 0.327512 0.321605 0.318751 0.315131 0.327512 0.305381 0.321605 0.315131 0.327512 0.315131 0.321605 0.287194 0.288391 0.305527 0.283283 0.304258 0.288391 0.318751 0.305527 0.304258 0.288391 0.304258 0.305527 0.255238 0.283079 0.271687 0.305381 0.296841 0.283079 0.283283 0.271687 0.296841 0.283079 0.296841 0.271687 0.318751 0.304258 0.315131 0.283283 0.296841 0.304258 0.305381 0.315131 0.296841 0.304258 0.296841 0.315131 -0.139312 -0.143094 -0.0850017 -0.135474 -0.0866184 -0.143094 -0.0370643 -0.0850017 -0.0866184 -0.143094 -0.0866184 -0.0850017 -0.0899229 -0.0631391 -0.117458 -0.0303147 -0.0792674 -0.0631391 -0.135474 -0.117458 -0.0792674 -0.0631391 -0.0792674 -0.117458 0.0416271 0.00491 0.00519759 -0.0370643 -0.037578 0.00491 -0.0303147 0.00519759 -0.037578 0.00491 -0.037578 0.00519759 -0.135474 -0.0792674 -0.0866184 -0.0303147 -0.037578 -0.0792674 -0.0370643 -0.0866184 -0.037578 -0.0792674 -0.037578 -0.0866184 0.0898632 0.0731975 0.0371188 0.0673351 0.0300837 0.0731975 -0.0112177 0.0371188 0.0300837 0.0731975 0.0300837 0.0371188 0.0789408 0.0447926 0.0699041 0.0060386 0.0339192 0.0447926 0.0673351 0.0699041 0.0339192 0.0447926 0.0339192 0.0699041 -0.0899229 -0.0541856 -0.0389011 -0.0112177 -0.00751906 -0.0541856 0.0060386 -0.0389011 -0.00751906 -0.0541856 -0.00751906 -0.0389011 0.0673351 0.0339192 0.0300837 0.0060386 -0.00751906 0.0339192 -0.0112177 0.0300837 -0.00751906 0.0339192 -0.00751906 0.0300837 0.146283 0.12541 0.12743 0.101335 0.103011 0.12541 0.10916 0.12743 0.103011 0.12541 0.103011 0.12743 0.0416271 0.0424798 0.0735311 0.0491038 0.0748458 0.0424798 0.101335 0.0735311 0.0748458 0.0424798 0.0748458 0.0735311 0.0789408 0.0925517 0.0613397 0.10916 0.0811733 0.0925517 0.0491038 0.0613397 0.0811733 0.0925517 0.0811733 0.0613397 0.101335 0.0748458 0.103011 0.0491038 0.0811733 0.0748458 0.10916 0.103011 0.0811733 0.0748458 0.0811733 0.103011 -0.0899229 -0.0389011 -0.0631391 0.0060386 -0.0156317 -0.0389011 -0.0303147 -0.0631391 -0.0156317 -0.0389011 -0.0156317 -0.0631391 0.0789408 0.0613397 0.0447926 0.0491038 0.0254269 0.0613397 0.0060386 0.0447926 0.0254269 0.0613397 0.0254269 0.0447926 0.0416271 0.00519759 0.0424798 -0.0303147 0.0120892 0.00519759 0.0491038 0.0424798 0.0120892 0.00519759 0.0120892 0.0424798 0.0060386 0.0254269 -0.0156317 0.0491038 0.0120892 0.0254269 -0.0303147 -0.0156317 0.0120892 0.0254269 0.0120892 -0.0156317 0.146283 0.162035 0.131734 0.179361 0.154021 0.162035 0.120788 0.131734 0.154021 0.162035 0.154021 0.131734 0.215655 0.199483 0.197634 0.177604 0.17652 0.199483 0.179361 0.197634 0.17652 0.199483 0.17652 0.197634 0.113901 0.114431 0.150056 0.120788 0.149663 0.114431 0.177604 0.150056 0.149663 0.114431 0.149663 0.150056 0.179361 0.17652 0.154021 0.177604 0.149663 0.17652 0.120788 0.154021 0.149663 0.17652 0.149663 0.154021 0.27643 0.275508 0.263807 0.272055 0.259579 0.275508 0.249209 0.263807 0.259579 0.275508 0.259579 0.263807 0.255238 0.241636 0.265665 0.229871 0.25251 0.241636 0.272055 0.265665 0.25251 0.241636 0.25251 0.265665 0.215655 0.233111 0.221095 0.249209 0.241451 0.233111 0.229871 0.221095 0.241451 0.233111 0.241451 0.221095 0.272055 0.25251 0.259579 0.229871 0.241451 0.25251 0.249209 0.259579 0.241451 0.25251 0.241451 0.259579 0.153382 0.142116 0.190386 0.129836 0.17804 0.142116 0.218589 0.190386 0.17804 0.142116 0.17804 0.190386 0.113901 0.155576 0.119463 0.192866 0.165623 0.155576 0.129836 0.119463 0.165623 0.155576 0.165623 0.119463 0.255238 0.240053 0.226492 0.218589 0.205433 0.240053 0.192866 0.226492 0.205433 0.240053 0.205433 0.226492 0.129836 0.165623 0.17804 0.192866 0.205433 0.165623 0.218589 0.17804 0.205433 0.165623 0.205433 0.17804 0.215655 0.221095 0.199483 0.229871 0.20495 0.221095 0.177604 0.199483 0.20495 0.221095 0.20495 0.199483 0.255238 0.226492 0.241636 0.192866 0.214237 0.226492 0.229871 0.241636 0.214237 0.226492 0.214237 0.241636 0.113901 0.150056 0.155576 0.177604 0.18311 0.150056 0.192866 0.155576 0.18311 0.150056 0.18311 0.155576 0.229871 0.214237 0.20495 0.192866 0.18311 0.214237 0.177604 0.20495 0.18311 0.214237 0.18311 0.20495 0.153382 0.119224 0.142116 0.0818689 0.107274 0.119224 0.129836 0.142116 0.107274 0.119224 0.107274 0.142116 -0.00015897 0.0330855 0.0415977 0.0632251 0.0705553 0.0330855 0.0818689 0.0415977 0.0705553 0.0330855 0.0705553 0.0415977 0.113901 0.119463 0.0900615 0.129836 0.0964427 0.119463 0.0632251 0.0900615 0.0964427 0.119463 0.0964427 0.0900615 0.0818689 0.0705553 0.107274 0.0632251 0.0964427 0.0705553 0.129836 0.107274 0.0964427 0.0705553 0.0964427 0.107274 -0.139312 -0.0850017 -0.113783 -0.0370643 -0.0646646 -0.0850017 -0.0801736 -0.113783 -0.0646646 -0.0850017 -0.0646646 -0.113783 0.0416271 0.0188433 0.00491 0.00338099 -0.0200176 0.0188433 -0.0370643 0.00491 -0.0200176 0.0188433 -0.0200176 0.00491 -0.00015897 -0.0416299 -0.00335637 -0.0801736 -0.0365202 -0.0416299 0.00338099 -0.00335637 -0.0365202 -0.0416299 -0.0365202 -0.00335637 -0.0370643 -0.0200176 -0.0646646 0.00338099 -0.0365202 -0.0200176 -0.0801736 -0.0646646 -0.0365202 -0.0200176 -0.0365202 -0.0646646 0.146283 0.131734 0.12541 0.120788 0.109069 0.131734 0.101335 0.12541 0.109069 0.131734 0.109069 0.12541 0.113901 0.090186 0.114431 0.0697146 0.0969668 0.090186 0.120788 0.114431 0.0969668 0.090186 0.0969668 0.114431 0.0416271 0.0735311 0.0531583 0.101335 0.0830215 0.0735311 0.0697146 0.0531583 0.0830215 0.0735311 0.0830215 0.0531583 0.120788 0.0969668 0.109069 0.0697146 0.0830215 0.0969668 0.101335 0.109069 0.0830215 0.0969668 0.0830215 0.109069 -0.00015897 -0.00335637 0.0330855 0.00338099 0.0315879 -0.00335637 0.0632251 0.0330855 0.0315879 -0.00335637 0.0315879 0.0330855 0.0416271 0.0531583 0.0188433 0.0697146 0.038584 0.0531583 0.00338099 0.0188433 0.038584 0.0531583 0.038584 0.0188433 0.113901 0.0900615 0.090186 0.0632251 0.062623 0.0900615 0.0697146 0.090186 0.062623 0.0900615 0.062623 0.090186 0.00338099 0.038584 0.0315879 0.0697146 0.062623 0.038584 0.0632251 0.0315879 0.062623 0.038584 0.062623 0.0315879 -0.118363 -0.0783807 -0.0734982 -0.0370204 -0.0373753 -0.0783807 -0.0323398 -0.0734982 -0.0373753 -0.0783807 -0.0373753 -0.0734982 0.0401819 0.0378067 0.00294356 0.0351569 0.000733117 0.0378067 -0.0370204 0.00294356 0.000733117 0.0378067 0.000733117 0.00294356 0.0381623 0.00477646 0.0342439 -0.0323398 0.000270247 0.00477646 0.0351569 0.0342439 0.000270247 0.00477646 0.000270247 0.0342439 -0.0370204 0.000733117 -0.0373753 0.0351569 0.000270247 0.000733117 -0.0323398 -0.0373753 0.000270247 0.000733117 0.000270247 -0.0373753 0.153382 0.157111 0.130263 0.158083 0.132206 0.157111 0.10394 0.130263 0.132206 0.157111 0.132206 0.130263 0.15187 0.128114 0.15617 0.10193 0.131416 0.128114 0.158083 0.15617 0.131416 0.128114 0.131416 0.15617 0.0401819 0.0739054 0.0726102 0.10394 0.104208 0.0739054 0.10193 0.0726102 0.104208 0.0739054 0.104208 0.0726102 0.158083 0.131416 0.132206 0.10193 0.104208 0.131416 0.10394 0.132206 0.104208 0.131416 0.104208 0.132206 0.138864 0.117953 0.137946 0.0944924 0.116372 0.117953 0.140883 0.137946 0.116372 0.117953 0.116372 0.137946 0.0381623 0.0648162 0.0679672 0.0939944 0.0921127 0.0648162 0.0944924 0.0679672 0.0921127 0.0648162 0.0921127 0.0679672 0.15187 0.146189 0.123306 0.140883 0.118745 0.146189 0.0939944 0.123306 0.118745 0.146189 0.118745 0.123306 0.0944924 0.0921127 0.116372 0.0939944 0.118745 0.0921127 0.140883 0.116372 0.118745 0.0921127 0.118745 0.116372 0.0401819 0.0726102 0.0378067 0.10193 0.0694709 0.0726102 0.0351569 0.0378067 0.0694709 0.0726102 0.0694709 0.0378067 0.15187 0.123306 0.128114 0.0939944 0.0979258 0.123306 0.10193 0.128114 0.0979258 0.123306 0.0979258 0.128114 0.0381623 0.0342439 0.0648162 0.0351569 0.0661752 0.0342439 0.0939944 0.0648162 0.0661752 0.0342439 0.0661752 0.0648162 0.10193 0.0979258 0.0694709 0.0939944 0.0661752 0.0979258 0.0351569 0.0694709 0.0661752 0.0979258 0.0661752 0.0694709 0.309438 0.3 0.310685 0.287921 0.29855 0.3 0.308109 0.310685 0.29855 0.3 0.29855 0.310685 0.253448 0.263441 0.272333 0.273261 0.283129 0.263441 0.287921 0.272333 0.283129 0.263441 0.283129 0.272333 0.287194 0.300653 0.281426 0.308109 0.292775 0.300653 0.273261 0.281426 0.292775 0.300653 0.292775 0.281426 0.287921 0.283129 0.29855 0.273261 0.292775 0.283129 0.308109 0.29855 0.292775 0.283129 0.292775 0.29855 0.138864 0.137946 0.172839 0.140883 0.177495 0.137946 0.203902 0.172839 0.177495 0.137946 0.177495 0.172839 0.15187 0.190642 0.146189 0.218916 0.183485 0.190642 0.140883 0.146189 0.183485 0.190642 0.183485 0.146189 0.253448 0.230405 0.239712 0.203902 0.210622 0.230405 0.218916 0.239712 0.210622 0.230405 0.210622 0.239712 0.140883 0.183485 0.177495 0.218916 0.210622 0.183485 0.203902 0.177495 0.210622 0.183485 0.210622 0.177495 0.153382 0.201213 0.157111 0.238435 0.202655 0.201213 0.158083 0.157111 0.202655 0.201213 0.202655 0.157111 0.287194 0.263418 0.26683 0.233532 0.23738 0.263418 0.238435 0.26683 0.23738 0.263418 0.23738 0.26683 0.15187 0.15617 0.196957 0.158083 0.201167 0.15617 0.233532 0.196957 0.201167 0.15617 0.201167 0.196957 0.238435 0.23738 0.202655 0.233532 0.201167 0.23738 0.158083 0.202655 0.201167 0.23738 0.201167 0.202655 0.253448 0.239712 0.263441 0.218916 0.248938 0.239712 0.273261 0.263441 0.248938 0.239712 0.248938 0.263441 0.15187 0.196957 0.190642 0.233532 0.227076 0.196957 0.218916 0.190642 0.227076 0.196957 0.227076 0.190642 0.287194 0.281426 0.263418 0.273261 0.257317 0.281426 0.233532 0.263418 0.257317 0.281426 0.257317 0.263418 0.218916 0.227076 0.248938 0.233532 0.257317 0.227076 0.273261 0.248938 0.257317 0.227076 0.257317 0.248938 </DataArray>