<?xml version="1.0" encoding="UTF-8"?>
<VTKFile type="UnstructuredGrid" version="0.1" byte_order="LittleEndian" compressor="vtkZLibDataCompressor">
    <UnstructuredGrid>
        <Piece NumberOfPoints="1920" NumberOfCells="640">
            <Points>
                <DataArray type="Float64" Name="Array" NumberOfComponents="3" format="ascii" RangeMin="0" RangeMax="16.912654306767902">15.7071 8 0 15.6187 7.91161 0 15.7456 7.86407 0 15.5303 7.82322 0 15.6572 7.77568 0 15.6187 7.91161 0 15.7841 7.72814 0 15.7456 7.86407 0 15.6572 7.77568 0 15.6187 7.91161 0 15.6572 7.77568 0 15.7456 7.86407 0 15.3536 7.64645 0 15.4804 7.59891 0 15.4419 7.73483 0 15.6073 7.55137 0 15.5688 7.68729 0 15.4804 7.59891 0 15.5303 7.82322 0 15.4419 7.73483 0 15.5688 7.68729 0 15.4804 7.59891 0 15.5688 7.68729 0 15.4419 7.73483 0 15.861 7.45628 0 15.8225 7.59221 0 15.7341 7.50382 0 15.7841 7.72814 0 15.6957 7.63975 0 15.8225 7.59221 0 15.6073 7.55137 0 15.7341 7.50382 0 15.6957 7.63975 0 15.8225 7.59221 0 15.6957 7.63975 0 15.7341 7.50382 0 15.5303 7.82322 0 15.5688 7.68729 0 15.6572 7.77568 0 15.6073 7.55137 0 15.6957 7.63975 0 15.5688 7.68729 0 15.7841 7.72814 0 15.6572 7.77568 0 15.6957 7.63975 0 15.5688 7.68729 0 15.6957 7.63975 0 15.6572 7.77568 0 15 7.29289 0 15.1269 7.24535 0 15.0884 7.38128 0 15.2537 7.19781 0 15.2153 7.33374 0 15.1269 7.24535 0 15.1768 7.46967 0 15.0884 7.38128 0 15.2153 7.33374 0 15.1269 7.24535 0 15.2153 7.33374 0 15.0884 7.38128 0 15.5075 7.10273 0 15.469 7.23866 0 15.3806 7.15027 0 15.4305 7.37459 0 15.3421 7.2862 0 15.469 7.23866 0 15.2537 7.19781 0 15.3806 7.15027 0 15.3421 7.2862 0 15.469 7.23866 0 15.3421 7.2862 0 15.3806 7.15027 0 15.3536 7.64645 0 15.2652 7.55806 0 15.392 7.51052 0 15.1768 7.46967 0 15.3036 7.42213 0 15.2652 7.55806 0 15.4305 7.37459 0 15.392 7.51052 0 15.3036 7.42213 0 15.2652 7.55806 0 15.3036 7.42213 0 15.392 7.51052 0 15.2537 7.19781 0 15.3421 7.2862 0 15.2153 7.33374 0 15.4305 7.37459 0 15.3036 7.42213 0 15.3421 7.2862 0 15.1768 7.46967 0 15.2153 7.33374 0 15.3036 7.42213 0 15.3421 7.2862 0 15.3036 7.42213 0 15.2153 7.33374 0 16.0149 6.91257 0 15.9764 7.0485 0 15.8881 6.96011 0 15.938 7.18443 0 15.8496 7.09604 0 15.9764 7.0485 0 15.7612 7.00765 0 15.8881 6.96011 0 15.8496 7.09604 0 15.9764 7.0485 0 15.8496 7.09604 0 15.8881 6.96011 0 15.861 7.45628 0 15.7726 7.3679 0 15.8995 7.32036 0 15.6842 7.27951 0 15.8111 7.23197 0 15.7726 7.3679 0 15.938 7.18443 0 15.8995 7.32036 0 15.8111 7.23197 0 15.7726 7.3679 0 15.8111 7.23197 0 15.8995 7.32036 0 15.5075 7.10273 0 15.6343 7.05519 0 15.5958 7.19112 0 15.7612 7.00765 0 15.7227 7.14358 0 15.6343 7.05519 0 15.6842 7.27951 0 15.5958 7.19112 0 15.7227 7.14358 0 15.6343 7.05519 0 15.7227 7.14358 0 15.5958 7.19112 0 15.938 7.18443 0 15.8111 7.23197 0 15.8496 7.09604 0 15.6842 7.27951 0 15.7227 7.14358 0 15.8111 7.23197 0 15.7612 7.00765 0 15.8496 7.09604 0 15.7227 7.14358 0 15.8111 7.23197 0 15.7227 7.14358 0 15.8496 7.09604 0 15.3536 7.64645 0 15.392 7.51052 0 15.4804 7.59891 0 15.4305 7.37459 0 15.5189 7.46298 0 15.392 7.51052 0 15.6073 7.55137 0 15.4804 7.59891 0 15.5189 7.46298 0 15.392 7.51052 0 15.5189 7.46298 0 15.4804 7.59891 0 15.5075 7.10273 0 15.5958 7.19112 0 15.469 7.23866 0 15.6842 7.27951 0 15.5574 7.32705 0 15.5958 7.19112 0 15.4305 7.37459 0 15.469 7.23866 0 15.5574 7.32705 0 15.5958 7.19112 0 15.5574 7.32705 0 15.469 7.23866 0 15.861 7.45628 0 15.7341 7.50382 0 15.7726 7.3679 0 15.6073 7.55137 0 15.6458 7.41544 0 15.7341 7.50382 0 15.6842 7.27951 0 15.7726 7.3679 0 15.6458 7.41544 0 15.7341 7.50382 0 15.6458 7.41544 0 15.7726 7.3679 0 15.4305 7.37459 0 15.5574 7.32705 0 15.5189 7.46298 0 15.6842 7.27951 0 15.6458 7.41544 0 15.5574 7.32705 0 15.6073 7.55137 0 15.5189 7.46298 0 15.6458 7.41544 0 15.5574 7.32705 0 15.6458 7.41544 0 15.5189 7.46298 0 15 8.70711 0 15.0884 8.61872 0 15.1439 8.7516 0 15.1768 8.53033 0 15.2323 8.66321 0 15.0884 8.61872 0 15.2878 8.7961 0 15.1439 8.7516 0 15.2323 8.66321 0 15.0884 8.61872 0 15.2323 8.66321 0 15.1439 8.7516 0 15.3536 8.35355 0 15.4091 8.48644 0 15.2652 8.44194 0 15.4646 8.61932 0 15.3207 8.57482 0 15.4091 8.48644 0 15.1768 8.53033 0 15.2652 8.44194 0 15.3207 8.57482 0 15.4091 8.48644 0 15.3207 8.57482 0 15.2652 8.44194 0 15.5755 8.88508 0 15.4317 8.84059 0 15.52 8.7522 0 15.2878 8.7961 0 15.3762 8.70771 0 15.4317 8.84059 0 15.4646 8.61932 0 15.52 8.7522 0 15.3762 8.70771 0 15.4317 8.84059 0 15.3762 8.70771 0 15.52 8.7522 0 15.1768 8.53033 0 15.3207 8.57482 0 15.2323 8.66321 0 15.4646 8.61932 0 15.3762 8.70771 0 15.3207 8.57482 0 15.2878 8.7961 0 15.2323 8.66321 0 15.3762 8.70771 0 15.3207 8.57482 0 15.3762 8.70771 0 15.2323 8.66321 0 15.7071 8 0 15.7626 8.13288 0 15.6187 8.08839 0 15.8181 8.26577 0 15.6742 8.22127 0 15.7626 8.13288 0 15.5303 8.17678 0 15.6187 8.08839 0 15.6742 8.22127 0 15.7626 8.13288 0 15.6742 8.22127 0 15.6187 8.08839 0 15.9291 8.53153 0 15.7852 8.48704 0 15.8736 8.39865 0 15.6413 8.44254 0 15.7297 8.35415 0 15.7852 8.48704 0 15.8181 8.26577 0 15.8736 8.39865 0 15.7297 8.35415 0 15.7852 8.48704 0 15.7297 8.35415 0 15.8736 8.39865 0 15.3536 8.35355 0 15.4419 8.26517 0 15.4974 8.39805 0 15.5303 8.17678 0 15.5858 8.30966 0 15.4419 8.26517 0 15.6413 8.44254 0 15.4974 8.39805 0 15.5858 8.30966 0 15.4419 8.26517 0 15.5858 8.30966 0 15.4974 8.39805 0 15.8181 8.26577 0 15.7297 8.35415 0 15.6742 8.22127 0 15.6413 8.44254 0 15.5858 8.30966 0 15.7297 8.35415 0 15.5303 8.17678 0 15.6742 8.22127 0 15.5858 8.30966 0 15.7297 8.35415 0 15.5858 8.30966 0 15.6742 8.22127 0 16.1511 9.06306 0 16.0072 9.01857 0 16.0956 8.93018 0 15.8633 8.97407 0 15.9517 8.88568 0 16.0072 9.01857 0 16.0401 8.7973 0 16.0956 8.93018 0 15.9517 8.88568 0 16.0072 9.01857 0 15.9517 8.88568 0 16.0956 8.93018 0 15.5755 8.88508 0 15.6639 8.7967 0 15.7194 8.92958 0 15.7523 8.70831 0 15.8078 8.84119 0 15.6639 8.7967 0 15.8633 8.97407 0 15.7194 8.92958 0 15.8078 8.84119 0 15.6639 8.7967 0 15.8078 8.84119 0 15.7194 8.92958 0 15.9291 8.53153 0 15.9846 8.66441 0 15.8407 8.61992 0 16.0401 8.7973 0 15.8962 8.7528 0 15.9846 8.66441 0 15.7523 8.70831 0 15.8407 8.61992 0 15.8962 8.7528 0 15.9846 8.66441 0 15.8962 8.7528 0 15.8407 8.61992 0 15.8633 8.97407 0 15.8078 8.84119 0 15.9517 8.88568 0 15.7523 8.70831 0 15.8962 8.7528 0 15.8078 8.84119 0 16.0401 8.7973 0 15.9517 8.88568 0 15.8962 8.7528 0 15.8078 8.84119 0 15.8962 8.7528 0 15.9517 8.88568 0 15.3536 8.35355 0 15.4974 8.39805 0 15.4091 8.48644 0 15.6413 8.44254 0 15.5529 8.53093 0 15.4974 8.39805 0 15.4646 8.61932 0 15.4091 8.48644 0 15.5529 8.53093 0 15.4974 8.39805 0 15.5529 8.53093 0 15.4091 8.48644 0 15.9291 8.53153 0 15.8407 8.61992 0 15.7852 8.48704 0 15.7523 8.70831 0 15.6968 8.57542 0 15.8407 8.61992 0 15.6413 8.44254 0 15.7852 8.48704 0 15.6968 8.57542 0 15.8407 8.61992 0 15.6968 8.57542 0 15.7852 8.48704 0 15.5755 8.88508 0 15.52 8.7522 0 15.6639 8.7967 0 15.4646 8.61932 0 15.6084 8.66381 0 15.52 8.7522 0 15.7523 8.70831 0 15.6639 8.7967 0 15.6084 8.66381 0 15.52 8.7522 0 15.6084 8.66381 0 15.6639 8.7967 0 15.6413 8.44254 0 15.6968 8.57542 0 15.5529 8.53093 0 15.7523 8.70831 0 15.6084 8.66381 0 15.6968 8.57542 0 15.4646 8.61932 0 15.5529 8.53093 0 15.6084 8.66381 0 15.6968 8.57542 0 15.6084 8.66381 0 15.5529 8.53093 0 14.2929 8 0 14.3813 8.08839 0 14.2555 8.14756 0 14.4697 8.17678 0 14.3439 8.23595 0 14.3813 8.08839 0 14.2181 8.29513 0 14.2555 8.14756 0 14.3439 8.23595 0 14.3813 8.08839 0 14.3439 8.23595 0 14.2555 8.14756 0 14.6464 8.35355 0 14.5207 8.41273 0 14.5581 8.26517 0 14.3949 8.47191 0 14.4323 8.32434 0 14.5207 8.41273 0 14.4697 8.17678 0 14.5581 8.26517 0 14.4323 8.32434 0 14.5207 8.41273 0 14.4323 8.32434 0 14.5581 8.26517 0 14.1433 8.59026 0 14.1807 8.44269 0 14.2691 8.53108 0 14.2181 8.29513 0 14.3065 8.38352 0 14.1807 8.44269 0 14.3949 8.47191 0 14.2691 8.53108 0 14.3065 8.38352 0 14.1807 8.44269 0 14.3065 8.38352 0 14.2691 8.53108 0 14.4697 8.17678 0 14.4323 8.32434 0 14.3439 8.23595 0 14.3949 8.47191 0 14.3065 8.38352 0 14.4323 8.32434 0 14.2181 8.29513 0 14.3439 8.23595 0 14.3065 8.38352 0 14.4323 8.32434 0 14.3065 8.38352 0 14.3439 8.23595 0 15 8.70711 0 14.8742 8.76628 0 14.9116 8.61872 0 14.7484 8.82546 0 14.7858 8.67789 0 14.8742 8.76628 0 14.8232 8.53033 0 14.9116 8.61872 0 14.7858 8.67789 0 14.8742 8.76628 0 14.7858 8.67789 0 14.9116 8.61872 0 14.4969 8.94381 0 14.5343 8.79625 0 14.6227 8.88463 0 14.5717 8.64868 0 14.6601 8.73707 0 14.5343 8.79625 0 14.7484 8.82546 0 14.6227 8.88463 0 14.6601 8.73707 0 14.5343 8.79625 0 14.6601 8.73707 0 14.6227 8.88463 0 14.6464 8.35355 0 14.7348 8.44194 0 14.6091 8.50112 0 14.8232 8.53033 0 14.6974 8.58951 0 14.7348 8.44194 0 14.5717 8.64868 0 14.6091 8.50112 0 14.6974 8.58951 0 14.7348 8.44194 0 14.6974 8.58951 0 14.6091 8.50112 0 14.7484 8.82546 0 14.6601 8.73707 0 14.7858 8.67789 0 14.5717 8.64868 0 14.6974 8.58951 0 14.6601 8.73707 0 14.8232 8.53033 0 14.7858 8.67789 0 14.6974 8.58951 0 14.6601 8.73707 0 14.6974 8.58951 0 14.7858 8.67789 0 13.9938 9.18051 0 14.0312 9.03295 0 14.1196 9.12134 0 14.0686 8.88539 0 14.1569 8.97377 0 14.0312 9.03295 0 14.2453 9.06216 0 14.1196 9.12134 0 14.1569 8.97377 0 14.0312 9.03295 0 14.1569 8.97377 0 14.1196 9.12134 0 14.1433 8.59026 0 14.2317 8.67865 0 14.1059 8.73782 0 14.3201 8.76703 0 14.1943 8.82621 0 14.2317 8.67865 0 14.0686 8.88539 0 14.1059 8.73782 0 14.1943 8.82621 0 14.2317 8.67865 0 14.1943 8.82621 0 14.1059 8.73782 0 14.4969 8.94381 0 14.3711 9.00299 0 14.4085 8.85542 0 14.2453 9.06216 0 14.2827 8.9146 0 14.3711 9.00299 0 14.3201 8.76703 0 14.4085 8.85542 0 14.2827 8.9146 0 14.3711 9.00299 0 14.2827 8.9146 0 14.4085 8.85542 0 14.0686 8.88539 0 14.1943 8.82621 0 14.1569 8.97377 0 14.3201 8.76703 0 14.2827 8.9146 0 14.1943 8.82621 0 14.2453 9.06216 0 14.1569 8.97377 0 14.2827 8.9146 0 14.1943 8.82621 0 14.2827 8.9146 0 14.1569 8.97377 0 14.6464 8.35355 0 14.6091 8.50112 0 14.5207 8.41273 0 14.5717 8.64868 0 14.4833 8.56029 0 14.6091 8.50112 0 14.3949 8.47191 0 14.5207 8.41273 0 14.4833 8.56029 0 14.6091 8.50112 0 14.4833 8.56029 0 14.5207 8.41273 0 14.49
[...]
            <PointData>
                <DataArray Name="p" type="Float64" format="ascii">-1.20549 -1.41018 -1.37473 -1.52138 -1.47252 -1.41018 -1.43837 -1.37473 -1.47252 -1.41018 -1.47252 -1.37473 -1.80343 -1.71463 -1.64482 -1.6186 -1.58478 -1.71463 -1.52138 -1.64482 -1.58478 -1.71463 -1.58478 -1.64482 -1.46644 -1.46558 -1.536 -1.43837 -1.52163 -1.46558 -1.6186 -1.536 -1.52163 -1.46558 -1.52163 -1.536 -1.52138 -1.58478 -1.47252 -1.6186 -1.52163 -1.58478 -1.43837 -1.47252 -1.52163 -1.58478 -1.52163 -1.47252 -3.14147 -2.88204 -3.58507 -2.10005 -2.39618 -2.88204 -2.31703 -3.58507 -2.39618 -2.88204 -2.39618 -3.58507 -1.64299 -1.77283 -1.83519 -1.86734 -2.03145 -1.77283 -2.10005 -1.83519 -2.03145 -1.77283 -2.03145 -1.83519 -1.80343 -2.02298 -1.87938 -2.31703 -2.13937 -2.02298 -1.86734 -1.87938 -2.13937 -2.02298 -2.13937 -1.87938 -2.10005 -2.03145 -2.39618 -1.86734 -2.13937 -2.03145 -2.31703 -2.39618 -2.13937 -2.03145 -2.13937 -2.39618 -1.2451 -1.332 -1.32051 -1.39744 -1.40904 -1.332 -1.40598 -1.32051 -1.40904 -1.332 -1.40904 -1.32051 -1.46644 -1.51856 -1.44233 -1.56975 -1.47514 -1.51856 -1.39744 -1.44233 -1.47514 -1.51856 -1.47514 -1.44233 -1.64299 -1.508 -1.61519 -1.40598 -1.49978 -1.508 -1.56975 -1.61519 -1.49978 -1.508 -1.49978 -1.61519 -1.39744 -1.47514 -1.40904 -1.56975 -1.49978 -1.47514 -1.40598 -1.40904 -1.49978 -1.47514 -1.49978 -1.40904 -1.80343 -1.87938 -1.71463 -1.86734 -1.73593 -1.87938 -1.6186 -1.71463 -1.73593 -1.87938 -1.73593 -1.71463 -1.64299 -1.61519 -1.77283 -1.56975 -1.6967 -1.61519 -1.86734 -1.77283 -1.6967 -1.61519 -1.6967 -1.77283 -1.46644 -1.536 -1.51856 -1.6186 -1.61233 -1.536 -1.56975 -1.51856 -1.61233 -1.536 -1.61233 -1.51856 -1.86734 -1.6967 -1.73593 -1.56975 -1.61233 -1.6967 -1.6186 -1.73593 -1.61233 -1.6967 -1.61233 -1.73593 -3.2423 -3.51708 -2.76479 -2.32354 -2.31705 -3.51708 -2.02875 -2.76479 -2.31705 -3.51708 -2.31705 -2.76479 -1.8017 -1.8509 -2.01753 -1.81024 -2.09152 -1.8509 -2.32354 -2.01753 -2.09152 -1.8509 -2.09152 -2.01753 -1.5903 -1.77219 -1.71083 -2.02875 -1.95683 -1.77219 -1.81024 -1.71083 -1.95683 -1.77219 -1.95683 -1.71083 -2.32354 -2.09152 -2.31705 -1.81024 -1.95683 -2.09152 -2.02875 -2.31705 -1.95683 -2.09152 -1.95683 -2.31705 -1.20549 -1.3656 -1.40725 -1.42157 -1.45959 -1.3656 -1.51989 -1.40725 -1.45959 -1.3656 -1.45959 -1.40725 -1.43138 -1.50149 -1.43854 -1.58718 -1.49759 -1.50149 -1.42157 -1.43854 -1.49759 -1.50149 -1.49759 -1.43854 -1.8017 -1.64308 -1.69391 -1.51989 -1.56899 -1.64308 -1.58718 -1.69391 -1.56899 -1.64308 -1.56899 -1.69391 -1.42157 -1.49759 -1.45959 -1.58718 -1.56899 -1.49759 -1.51989 -1.45959 -1.56899 -1.49759 -1.56899 -1.45959 -1.21344 -1.28752 -1.29247 -1.36936 -1.36804 -1.28752 -1.35561 -1.29247 -1.36804 -1.28752 -1.36804 -1.29247 -1.5903 -1.56241 -1.46518 -1.52204 -1.45435 -1.56241 -1.36936 -1.46518 -1.45435 -1.56241 -1.45435 -1.46518 -1.43138 -1.40229 -1.47729 -1.35561 -1.43166 -1.40229 -1.52204 -1.47729 -1.43166 -1.40229 -1.43166 -1.47729 -1.36936 -1.45435 -1.36804 -1.52204 -1.43166 -1.45435 -1.35561 -1.36804 -1.43166 -1.45435 -1.43166 -1.36804 -1.8017 -1.69391 -1.8509 -1.58718 -1.69381 -1.69391 -1.81024 -1.8509 -1.69381 -1.69391 -1.69381 -1.8509 -1.43138 -1.47729 -1.50149 -1.52204 -1.56909 -1.47729 -1.58718 -1.50149 -1.56909 -1.47729 -1.56909 -1.50149 -1.5903 -1.71083 -1.56241 -1.81024 -1.64309 -1.71083 -1.52204 -1.56241 -1.64309 -1.71083 -1.64309 -1.56241 -1.58718 -1.56909 -1.69381 -1.52204 -1.64309 -1.56909 -1.81024 -1.69381 -1.64309 -1.56909 -1.64309 -1.69381 4.98363 3.7704 3.87376 3.23672 3.34963 3.7704 3.32104 3.87376 3.34963 3.7704 3.34963 3.87376 2.18262 2.29611 2.7074 2.439 2.81908 2.29611 3.23672 2.7074 2.81908 2.29611 2.81908 2.7074 2.53875 2.89864 2.52509 3.32104 2.90074 2.89864 2.439 2.52509 2.90074 2.89864 2.90074 2.52509 3.23672 2.81908 3.34963 2.439 2.90074 2.81908 3.32104 3.34963 2.90074 2.81908 2.90074 3.34963 -3.2423 -0.976485 0.373377 -0.0235949 0.155227 -0.976485 0.918378 0.373377 0.155227 -0.976485 0.155227 0.373377 1.02919 1.13222 0.602359 1.34961 0.689544 1.13222 -0.0235949 0.602359 0.689544 1.13222 0.689544 0.602359 2.18262 1.60585 1.72611 0.918378 1.07393 1.60585 1.34961 1.72611 1.07393 1.60585 1.07393 1.72611 -0.0235949 0.689544 0.155227 1.34961 1.07393 0.689544 0.918378 0.155227 1.07393 0.689544 1.07393 0.155227 1.66557 1.81467 1.59831 2.00403 1.751 1.81467 1.48749 1.59831 1.751 1.81467 1.751 1.59831 2.53875 2.20805 2.24326 1.84017 1.95133 2.20805 2.00403 2.24326 1.95133 2.20805 1.95133 2.24326 1.02919 1.30835 1.4401 1.48749 1.63689 1.30835 1.84017 1.4401 1.63689 1.30835 1.63689 1.4401 2.00403 1.95133 1.751 1.84017 1.63689 1.95133 1.48749 1.751 1.63689 1.95133 1.63689 1.751 2.18262 1.72611 2.29611 1.34961 1.92547 1.72611 2.439 2.29611 1.92547 1.72611 1.92547 2.29611 1.02919 1.4401 1.13222 1.84017 1.63944 1.4401 1.34961 1.13222 1.63944 1.4401 1.63944 1.13222 2.53875 2.52509 2.20805 2.439 2.10713 2.52509 1.84017 2.20805 2.10713 2.52509 2.10713 2.20805 1.34961 1.63944 1.92547 1.84017 2.10713 1.63944 2.439 1.92547 2.10713 1.63944 2.10713 1.92547 -1.20549 -1.31977 -1.3656 -1.32214 -1.33944 -1.31977 -1.42157 -1.3656 -1.33944 -1.31977 -1.33944 -1.3656 -1.24754 -1.27822 -1.29126 -1.32015 -1.31721 -1.27822 -1.32214 -1.29126 -1.31721 -1.27822 -1.31721 -1.29126 -1.43138 -1.43854 -1.3752 -1.42157 -1.36705 -1.43854 -1.32015 -1.3752 -1.36705 -1.43854 -1.36705 -1.3752 -1.32214 -1.31721 -1.33944 -1.32015 -1.36705 -1.31721 -1.42157 -1.33944 -1.36705 -1.31721 -1.36705 -1.33944 -1.00468 -1.04614 -1.0709 -1.08927 -1.11093 -1.04614 -1.13457 -1.0709 -1.11093 -1.04614 -1.11093 -1.0709 -1.17699 -1.19782 -1.13388 -1.21394 -1.15328 -1.19782 -1.08927 -1.13388 -1.15328 -1.19782 -1.15328 -1.13388 -1.24754 -1.19416 -1.22892 -1.13457 -1.17245 -1.19416 -1.21394 -1.22892 -1.17245 -1.19416 -1.17245 -1.22892 -1.08927 -1.15328 -1.11093 -1.21394 -1.17245 -1.15328 -1.13457 -1.11093 -1.17245 -1.15328 -1.17245 -1.11093 -1.21344 -1.29247 -1.23879 -1.35561 -1.29543 -1.29247 -1.23584 -1.23879 -1.29543 -1.29247 -1.29543 -1.23879 -1.43138 -1.36493 -1.40229 -1.30302 -1.33772 -1.36493 -1.35561 -1.40229 -1.33772 -1.36493 -1.33772 -1.40229 -1.17699 -1.2131 -1.24081 -1.23584 -1.27554 -1.2131 -1.30302 -1.24081 -1.27554 -1.2131 -1.27554 -1.24081 -1.35561 -1.33772 -1.29543 -1.30302 -1.27554 -1.33772 -1.23584 -1.29543 -1.27554 -1.33772 -1.27554 -1.29543 -1.24754 -1.22892 -1.27822 -1.21394 -1.26986 -1.22892 -1.32015 -1.27822 -1.26986 -1.22892 -1.26986 -1.27822 -1.17699 -1.24081 -1.19782 -1.30302 -1.25909 -1.24081 -1.21394 -1.19782 -1.25909 -1.24081 -1.25909 -1.19782 -1.43138 -1.3752 -1.36493 -1.32015 -1.31748 -1.3752 -1.30302 -1.36493 -1.31748 -1.3752 -1.31748 -1.36493 -1.21394 -1.25909 -1.26986 -1.30302 -1.31748 -1.25909 -1.32015 -1.26986 -1.31748 -1.25909 -1.31748 -1.26986 1.66557 1.59831 1.42199 1.48749 1.29931 1.59831 1.15644 1.42199 1.29931 1.59831 1.29931 1.42199 1.02919 0.842118 1.30835 0.730812 1.11472 0.842118 1.48749 1.30835 1.11472 0.842118 1.11472 1.30835 0.635986 0.887165 0.668579 1.15644 0.978465 0.887165 0.730812 0.668579 0.978465 0.887165 0.978465 0.668579 1.48749 1.11472 1.29931 0.730812 0.978465 1.11472 1.15644 1.29931 0.978465 1.11472 0.978465 1.29931 -3.2423 -2.16577 -0.976485 -1.40307 -1.09752 -2.16577 -0.0235949 -0.976485 -1.09752 -2.16577 -1.09752 -0.976485 -0.613825 -0.444413 -0.949594 -0.0959389 -0.719588 -0.444413 -1.40307 -0.949594 -0.719588 -0.444413 -0.719588 -0.949594 1.02919 0.602359 0.439184 -0.0235949 -0.164697 0.602359 -0.0959389 0.439184 -0.164697 0.602359 -0.164697 0.439184 -1.40307 -0.719588 -1.09752 -0.0959389 -0.164697 -0.719588 -0.0235949 -1.09752 -0.164697 -0.719588 -0.164697 -1.09752 0.0252979 0.117831 -0.0773207 0.247234 0.0271311 0.117831 -0.20734 -0.0773207 0.0271311 0.117831 0.0271311 -0.0773207 0.635986 0.396978 0.419782 0.105475 0.182492 0.396978 0.247234 0.419782 0.182492 0.396978 0.182492 0.419782 -0.613825 -0.379485 -0.23913 -0.20734 -0.0868418 -0.379485 0.105475 -0.23913 -0.0868418 -0.379485 -0.0868418 -0.23913 0.247234 0.182492 0.0271311 0.105475 -0.0868418 0.182492 -0.20734 0.0271311 -0.0868418 0.182492 -0.0868418 0.0271311 1.02919 0.439184 0.842118 -0.0959389 0.384182 0.439184 0.730812 0.842118 0.384182 0.439184 0.384182 0.842118 -0.613825 -0.23913 -0.444413 0.105475 0.0118815 -0.23913 -0.0959389 -0.444413 0.0118815 -0.23913 0.0118815 -0.444413 0.635986 0.668579 0.396978 0.730812 0.381973 0.668579 0.105475 0.396978 0.381973 0.668579 0.381973 0.396978 -0.0959389 0.0118815 0.384182 0.105475 0.381973 0.0118815 0.730812 0.384182 0.381973 0.0118815 0.381973 0.384182 1.66557 1.42199 1.49294 1.15644 1.28083 1.42199 1.35971 1.49294 1.28083 1.42199 1.28083 1.49294 0.635986 0.84697 0.887165 0.997373 1.06215 0.84697 1.15644 0.887165 1.06215 0.84697 1.06215 0.887165 1.18201 1.25911 1.10475 1.35971 1.17928 1.25911 0.997373 1.10475 1.17928 1.25911 1.17928 1.10475 1.15644 1.06215 1.28083 0.997373 1.17928 1.06215 1.35971 1.28083 1.17928 1.06215 1.17928 1.28083 0.0252979 0.228836 0.117831 0.407317 0.338827 0.228836 0.247234 0.117831 0.338827 0.228836 0.338827 0.117831 0.688428 0.676234 0.560168 0.663046 0.523964 0.676234 0.407317 0.560168 0.523964 0.676234 0.523964 0.560168 0.635986 0.419782 0.64965 0.247234 0.478842 0.419782 0.663046 0.64965 0.478842 0.419782 0.478842 0.64965 0.407317 0.523964 0.338827 0.663046 0.478842 0.523964 0.247234 0.338827 0.478842 0.523964 0.478842 0.338827 1.0125 1.0409 0.953835 1.07682 0.977587 1.0409 0.882171 0.953835 0.977587 1.0409 0.977587 0.953835 1.18201 1.04982 1.12283 0.921029 1.00869 1.04982 1.07682 1.12283 1.00869 1.04982 1.00869 1.12283 0.688428 0.794736 0.799467 0.882171 0.898471 0.794736 0.921029 0.799467 0.898471 0.794736 0.898471 0.799467 1.07682 1.00869 0.977587 0.921029 0.898471 1.00869 0.882171 0.977587 0.898471 1.00869 0.898471 0.977587 0.635986 0.64965 0.84697 0.663046 0.822552 0.64965 0.997373 0.84697 0.822552 0.64965 0.822552 0.84697 0.688428 0.799467 0.676234 0.921029 0.808002 0.799467 0.663046 0.676234 0.808002 0.799467 0.808002 0.676234 1.18201 1.10475 1.04982 0.997373 0.952654 1.10475 0.921029 1.04982 0.952654 1.10475 0.952654 1.04982 0.663046 0.808002 0.822552 0.921029 0.952654 0.808002 0.997373 0.822552 0.952654 0.808002 0.952654 0.822552 2.39322 2.44311 2.30728 2.46837 2.32407 2.44311 2.20717 2.30728 2.32407 2.44311 2.32407 2.30728 2.39647 2.27148 2.45628 2.16592 2.31499 2.27148 2.46837 2.45628 2.31499 2.27148 2.31499 2.45628 2.00054 2.10271 2.07588 2.20717 2.19842 2.10271 2.16592 2.07588 2.19842 2.10271 2.19842 2.07588 2.46837 2.31499 2.32407 2.16592 2.19842 2.31499 2.20717 2.32407 2.19842 2.31499 2.19842 2.32407 1.66557 1.72749 1.90536 1.75172 1.91093 1.72749 2.11601 1.90536 1.91093 1.72749 1.91093 1.90536 1.74431 1.86585 1.7541 2.01328 1.89391 1.86585 1.75172 1.7541 1.89391 1.86585 1.89391 1.7541 2.39647 2.28257 2.18947 2.11601 2.06791 2.28257 2.01328 2.18947 2.06791 2.28257 2.06791 2.18947 1.75172 1.89391 1.91093 2.01328 2.06791 1.89391 2.11601 1.91093 2.06791 1.89391 2.06791 1.91093 1.66893 1.73899 1.68882 1.81713 1.76797 1.73899 1.70891 1.68882 1.76797 1.73899 1.76797 1.68882 2.00054 1.9619 1.90477 1.90671 1.85915 1.9619 1.81713 1.90477 1.85915 1.9619 1.85915 1.90477 1.74431 1.72806 1.83333 1.70891 1.80036 1.72806 1.90671 1.83333 1.80036 1.72806 1.80036 1.83333 1.81713 1.85915 1.76797 1.90671 1.80036 1.85915 1.70891 1.76797 1.80036 1.85915 1.80036 1.76797 2.39647 2.18947 2.27148 2.01328 2.10437 2.18947 2.16592 2.27148 2.10437 2.18947 2.10437 2.27148 1.74431 1.83333 1.86585 1.90671 1.95832 1.83333 2.01328 1.86585 1.95832 1.83333 1.95832 1.86585 2.00054 2.07588 1.9619 2.16592 2.02876 2.07588 1.90671 1.9619 2.02876 2.07588 2.02876 1.9619 2.01328 1.95832 2.10437 1.90671 2.02876 1.95832 2.16592 2.10437 2.02876 1.95832 2.02876 2.10437 1.66557 1.49294 1.72749 1.35971 1.57064 1.49294 1.75172 1.72749 1.57064 1.49294 1.57064 1.72749 1.18201 1.34408 1.25911 1.49696 1.44399 1.34408 1.35971 1.25911 1.44399 1.34408 1.44399 1.25911 1.74431 1.7541 1.63288 1.75172 1.61292 1.7541 1.49696 1.63288 1.61292 1.7541 1.61292 1.63288 1.35971 1.44399 1.57064 1.49696 1.61292 1.44399 1.75172 1.57064 1.61292 1.44399 1.61292 1.57064 1.0125 1.10987 1.0409 1.2089 1.15087 1.10987 1.07682 1.0409 1.15087 1.10987 1.15087 1.0409 1.39848 1.36816 1.30617 1.32471 1.2614 1.36816 1.2089 1.30617 1.2614 1.36816 1.2614 1.30617 1.18201 1.12283 1.26465 1.07682 1.20138 1.12283 1.32471 1.26465 1.20138 1.12283 1.20138 1.26465 1.2089 1.2614 1.15087 1.32471 1.20138 1.2614 1.07682 1.15087 1.20138 1.2614 1.20138 1.15087 1.66893 1.68882 1.61886 1.70891 1.62966 1.68882 1.55681 1.61886 1.62966 1.68882 1.62966 1.61886 1.74431 1.63905 1.72806 1.54648 1.63657 1.63905 1.70891 1.72806 1.63657 1.63905 1.63657 1.72806 1.39848 1.48268 1.46726 1.55681 1.55496 1.48268 1.54648 1.46726 1.55496 1.48268 1.55496 1.46726 1.70891 1.63657 1.62966 1.54648 1.55496 1.63657 1.55681 1.62966 1.55496 1.63657 1.55496 1.62966 1.18201 1.26465 1.34408 1.32471 1.40236 1.26465 1.49696 1.34408 1.40236 1.26465 1.40236 1.34408 1.39848 1.46726 1.36816 1.54648 1.44139 1.46726 1.32471 1.36816 1.44139 1.46726 1.44139 1.36816 1.74431 1.63288 1.63905 1.49696 1.52883 1.63288 1.54648 1.63905 1.52883 1.63288 1.52883 1.63905 1.32471 1.44139 1.40236 1.54648 1.52883 1.44139 1.49696 1.40236 1.52883 1.44139 1.52883 1.40236 2.39322 2.26305 2.35812 2.15669 2.23579 2.26305 2.29603 2.35812 2.23579 2.26305 2.23579 2.35812 1.99608 2.05205 2.06902 2.0985 2.13529 2.05205 2.15669 2.06902 2.13529 2.05205 2.13529 2.06902 2.13087 2.21732 2.12771 2.29603 2.18848 2.21732 2.0985 2.12771 2.18848 2.21732 2.18848 2.12771 2.15669 2.13529 2.23579 2.0985 2.18848 2.13529 2.29603 2.23579 2.18848 2.13529 2.18848 2.23579 1.80307 1.83301 1.83992 1.85983 1.87485 1.83301 1.88351 1.83992 1.87485 1.83301 1.87485 1.83992 1.89345 1.9291 1.88081 1.95942 1.90559 1.9291 1.85983 1.88081 1.90559 1.9291 1.90559 1.88081 1.99608 1.935 1.98256 1.88351 1.92415 1.935 1.95942 1.98256 1.92415 1.935 1.92415 1.98256 1.85983 1.90559 1.87485 1.95942 1.92415 1.90559 1.88351 1.87485 1.92415 1.90559 1.92415 1.87485 1.80723 1.8798 1.85266 1.95856 1.91986 1.8798 1.88181 1.85266 1.91986 1.8798 1.91986 1.85266 2.13087 2.05972 2.04328 1.99664 1.9891 2.05972 1.95856 2.04328 1.9891 2.05972 1.9891 2.04328 1.89345 1.89465 1.9417 1.88181 1.9397 1.89465 1.99664 1.9417 1.9397 1.89465 1.9397 1.9417 1.95856 1.9891 1.91986 1.99664 1.9397 1.9891 1.88181 1.91986 1.9397 1.9891 1.9397 1.91986 1.99608 1.98256 2.05205 1.95942 2.02306 1.98256 2.0985 2.05205 2.02306 1.98256 2.02306 2.05205 1.89345 1.9417 1.9291 1.99664 1.98514 1.9417 1.95942 1.9291 1.98514 1.9417 1.98514 1.9291 2.13087 2.12771 2.05972 2.0985 2.05088 2.12771 1.99664 2.05972 2.05088 2.12771 2.05088 2.05972 1.95942 1.98514 2.02306 1.99664 2.05088 1.98514 2.0985 2.02306 2.05088 1.98514 2.05088 2.02306 1.62192 1.63329 1.64663 1.64781 1.66218 1.63329 1.67256 1.64663 1.66218 1.63329 1.66218 1.64663 1.68591 1.70516 1.6652 1.71807 1.68181 1.70516 1.64781 1.6652 1.68181 1.70516 1.68181 1.6652 1.72595 1.69941 1.7245 1.67256 1.69294 1.69941 1.71807 1.7245 1.69294 1.69941 1.69294 1.7245 1.64781 1.68181 1.66218 1.71807 1.69294 1.68181 1.67256 1.66218 1.69294 1.68181 1.69294 1.66218 1.80723 1.85266 1.77102 1.88181 1.80619 1.85266 1.73861 1.77102 1.80619 1.85266 1.80619 1.77102 1.89345 1.83894 1.89465 1.78484 1.82879 1.83894 1.88181 1.89465 1.82879 1.83894 1.82879 1.89465 1.68591 1.71029 1.7333 1.73861 1.76668 1.71029 1.78484 1.7333 1.76668 1.71029 1.76668 1.7333 1.88181 1.82879 1.80619 1.78484 1.76668 1.82879 1.73861 1.80619 1.76668 1.82879 1.76668 1.80619 1.80307 1.7918 1.83301 1.77383 1.81249 1.7918 1.85983 1.83301 1.81249 1.7918 1.81249 1.83301 1.72595 1.75606 1.7513 1.7932 1.78602 1.75606 1.77383 1.7513 1.78602 1.75606 1.78602 1.7513 1.89345 1.88081 1.83824 1.85983 1.82881 1.88081 1.7932 1.83824 1.82881 1.88081 1.82881 1.83824 1.77383 1.78602 1.81249 1.7932 1.82881 1.78602 1.85983 1.81249 1.82881 1.78602 1.82881 1.81249 1.68591 1.7333 1.70516 1.78484 1.7483 1.7333 1.71807 1.70516 1.7483 1.7333 1.7483 1.70516 1.89345 1.83824 1.83894 1.7932 1.79319 1.83824 1.78484 1.83894 1.79319 1.83824 1.79319 1.83894 1.72595 1.7245 1.75606 1.71807 1.75565 1.7245 1.7932 1.75606 1.75565 1.7245 1.75565 1.75606 1.78484 1.79319 1.7483 1.7932 1.75565 1.79319 1.71807 1.7483 1.75565 1.79319 1.75565 1.7483 </DataArray>