<?xml version="1.0" encoding="UTF-8"?>
<VTKFile type="UnstructuredGrid" version="0.1" byte_order="LittleEndian" compressor="vtkZLibDataCompressor">
    <UnstructuredGrid>
        <Piece NumberOfPoints="1920" NumberOfCells="640">
            <Points>
                <DataArray type="Float64" Name="Array" NumberOfComponents="3" format="ascii" RangeMin="0" RangeMax="40">31.7659 0 0 32.2806 0 0 31.9598 0.388873 0 32.7952 0 0 32.4745 0.388873 0 32.2806 0 0 32.1538 0.777746 0 31.9598 0.388873 0 32.4745 0.388873 0 32.2806 0 0 32.4745 0.388873 0 31.9598 0.388873 0 33.8244 0 0 33.5037 0.388873 0 33.3098 0 0 33.183 0.777746 0 32.9891 0.388873 0 33.5037 0.388873 0 32.7952 0 0 33.3098 0 0 32.9891 0.388873 0 33.5037 0.388873 0 32.9891 0.388873 0 33.3098 0 0 32.5416 1.55549 0 32.3477 1.16662 0 32.8623 1.16662 0 32.1538 0.777746 0 32.6684 0.777746 0 32.3477 1.16662 0 33.183 0.777746 0 32.8623 1.16662 0 32.6684 0.777746 0 32.3477 1.16662 0 32.6684 0.777746 0 32.8623 1.16662 0 32.7952 0 0 32.9891 0.388873 0 32.4745 0.388873 0 33.183 0.777746 0 32.6684 0.777746 0 32.9891 0.388873 0 32.1538 0.777746 0 32.4745 0.388873 0 32.6684 0.777746 0 32.9891 0.388873 0 32.6684 0.777746 0 32.4745 0.388873 0 35.883 0 0 35.5622 0.388873 0 35.3683 0 0 35.2415 0.777746 0 35.0476 0.388873 0 35.5622 0.388873 0 34.8537 0 0 35.3683 0 0 35.0476 0.388873 0 35.5622 0.388873 0 35.0476 0.388873 0 35.3683 0 0 34.6001 1.55549 0 34.4062 1.16662 0 34.9208 1.16662 0 34.2123 0.777746 0 34.7269 0.777746 0 34.4062 1.16662 0 35.2415 0.777746 0 34.9208 1.16662 0 34.7269 0.777746 0 34.4062 1.16662 0 34.7269 0.777746 0 34.9208 1.16662 0 33.8244 0 0 34.3391 0 0 34.0184 0.388873 0 34.8537 0 0 34.533 0.388873 0 34.3391 0 0 34.2123 0.777746 0 34.0184 0.388873 0 34.533 0.388873 0 34.3391 0 0 34.533 0.388873 0 34.0184 0.388873 0 35.2415 0.777746 0 34.7269 0.777746 0 35.0476 0.388873 0 34.2123 0.777746 0 34.533 0.388873 0 34.7269 0.777746 0 34.8537 0 0 35.0476 0.388873 0 34.533 0.388873 0 34.7269 0.777746 0 34.533 0.388873 0 35.0476 0.388873 0 33.3172 3.11099 0 33.1233 2.72211 0 33.638 2.72211 0 32.9294 2.33324 0 33.444 2.33324 0 33.1233 2.72211 0 33.9587 2.33324 0 33.638 2.72211 0 33.444 2.33324 0 33.1233 2.72211 0 33.444 2.33324 0 33.638 2.72211 0 32.5416 1.55549 0 33.0562 1.55549 0 32.7355 1.94437 0 33.5708 1.55549 0 33.2501 1.94437 0 33.0562 1.55549 0 32.9294 2.33324 0 32.7355 1.94437 0 33.2501 1.94437 0 33.0562 1.55549 0 33.2501 1.94437 0 32.7355 1.94437 0 34.6001 1.55549 0 34.2794 1.94437 0 34.0855 1.55549 0 33.9587 2.33324 0 33.7648 1.94437 0 34.2794 1.94437 0 33.5708 1.55549 0 34.0855 1.55549 0 33.7648 1.94437 0 34.2794 1.94437 0 33.7648 1.94437 0 34.0855 1.55549 0 32.9294 2.33324 0 33.2501 1.94437 0 33.444 2.33324 0 33.5708 1.55549 0 33.7648 1.94437 0 33.2501 1.94437 0 33.9587 2.33324 0 33.444 2.33324 0 33.7648 1.94437 0 33.2501 1.94437 0 33.7648 1.94437 0 33.444 2.33324 0 33.8244 0 0 34.0184 0.388873 0 33.5037 0.388873 0 34.2123 0.777746 0 33.6976 0.777746 0 34.0184 0.388873 0 33.183 0.777746 0 33.5037 0.388873 0 33.6976 0.777746 0 34.0184 0.388873 0 33.6976 0.777746 0 33.5037 0.388873 0 34.6001 1.55549 0 34.0855 1.55549 0 34.4062 1.16662 0 33.5708 1.55549 0 33.8916 1.16662 0 34.0855 1.55549 0 34.2123 0.777746 0 34.4062 1.16662 0 33.8916 1.16662 0 34.0855 1.55549 0 33.8916 1.16662 0 34.4062 1.16662 0 32.5416 1.55549 0 32.8623 1.16662 0 33.0562 1.55549 0 33.183 0.777746 0 33.3769 1.16662 0 32.8623 1.16662 0 33.5708 1.55549 0 33.0562 1.55549 0 33.3769 1.16662 0 32.8623 1.16662 0 33.3769 1.16662 0 33.0562 1.55549 0 34.2123 0.777746 0 33.8916 1.16662 0 33.6976 0.777746 0 33.5708 1.55549 0 33.3769 1.16662 0 33.8916 1.16662 0 33.183 0.777746 0 33.6976 0.777746 0 33.3769 1.16662 0 33.8916 1.16662 0 33.3769 1.16662 0 33.6976 0.777746 0 35.883 0 0 36.3976 0 0 36.3976 0.5 0 36.9122 0 0 36.9122 0.5 0 36.3976 0 0 36.9122 1 0 36.3976 0.5 0 36.9122 0.5 0 36.3976 0 0 36.9122 0.5 0 36.3976 0.5 0 37.9415 0 0 37.9415 0.5 0 37.4269 0 0 37.9415 1 0 37.4269 0.5 0 37.9415 0.5 0 36.9122 0 0 37.4269 0 0 37.4269 0.5 0 37.9415 0.5 0 37.4269 0.5 0 37.4269 0 0 37.9415 2 0 37.4269 1.5 0 37.9415 1.5 0 36.9122 1 0 37.4269 1 0 37.4269 1.5 0 37.9415 1 0 37.9415 1.5 0 37.4269 1 0 37.4269 1.5 0 37.4269 1 0 37.9415 1.5 0 36.9122 0 0 37.4269 0.5 0 36.9122 0.5 0 37.9415 1 0 37.4269 1 0 37.4269 0.5 0 36.9122 1 0 36.9122 0.5 0 37.4269 1 0 37.4269 0.5 0 37.4269 1 0 36.9122 0.5 0 40 0 0 40 0.5 0 39.4854 0 0 40 1 0 39.4854 0.5 0 40 0.5 0 38.9707 0 0 39.4854 0 0 39.4854 0.5 0 40 0.5 0 39.4854 0.5 0 39.4854 0 0 40 2 0 39.4854 1.5 0 40 1.5 0 38.9707 1 0 39.4854 1 0 39.4854 1.5 0 40 1 0 40 1.5 0 39.4854 1 0 39.4854 1.5 0 39.4854 1 0 40 1.5 0 37.9415 0 0 38.4561 0 0 38.4561 0.5 0 38.9707 0 0 38.9707 0.5 0 38.4561 0 0 38.9707 1 0 38.4561 0.5 0 38.9707 0.5 0 38.4561 0 0 38.9707 0.5 0 38.4561 0.5 0 40 1 0 39.4854 1 0 39.4854 0.5 0 38.9707 1 0 38.9707 0.5 0 39.4854 1 0 38.9707 0 0 39.4854 0.5 0 38.9707 0.5 0 39.4854 1 0 38.9707 0.5 0 39.4854 0.5 0 40 4 0 39.4854 3.5 0 40 3.5 0 38.9707 3 0 39.4854 3 0 39.4854 3.5 0 40 3 0 40 3.5 0 39.4854 3 0 39.4854 3.5 0 39.4854 3 0 40 3.5 0 37.9415 2 0 38.4561 2 0 38.4561 2.5 0 38.9707 2 0 38.9707 2.5 0 38.4561 2 0 38.9707 3 0 38.4561 2.5 0 38.9707 2.5 0 38.4561 2 0 38.9707 2.5 0 38.4561 2.5 0 40 2 0 40 2.5 0 39.4854 2 0 40 3 0 39.4854 2.5 0 40 2.5 0 38.9707 2 0 39.4854 2 0 39.4854 2.5 0 40 2.5 0 39.4854 2.5 0 39.4854 2 0 38.9707 3 0 38.9707 2.5 0 39.4854 3 0 38.9707 2 0 39.4854 2.5 0 38.9707 2.5 0 40 3 0 39.4854 3 0 39.4854 2.5 0 38.9707 2.5 0 39.4854 2.5 0 39.4854 3 0 37.9415 0 0 38.4561 0.5 0 37.9415 0.5 0 38.9707 1 0 38.4561 1 0 38.4561 0.5 0 37.9415 1 0 37.9415 0.5 0 38.4561 1 0 38.4561 0.5 0 38.4561 1 0 37.9415 0.5 0 40 2 0 39.4854 2 0 39.4854 1.5 0 38.9707 2 0 38.9707 1.5 0 39.4854 2 0 38.9707 1 0 39.4854 1.5 0 38.9707 1.5 0 39.4854 2 0 38.9707 1.5 0 39.4854 1.5 0 37.9415 2 0 37.9415 1.5 0 38.4561 2 0 37.9415 1 0 38.4561 1.5 0 37.9415 1.5 0 38.9707 2 0 38.4561 2 0 38.4561 1.5 0 37.9415 1.5 0 38.4561 1.5 0 38.4561 2 0 38.9707 1 0 38.9707 1.5 0 38.4561 1 0 38.9707 2 0 38.4561 1.5 0 38.9707 1.5 0 37.9415 1 0 38.4561 1 0 38.4561 1.5 0 38.9707 1.5 0 38.4561 1.5 0 38.4561 1 0 40 4 0 40 4.5 0 39.5626 4.1437 0 40 5 0 39.5626 4.6437 0 40 4.5 0 39.1252 4.28739 0 39.5626 4.1437 0 39.5626 4.6437 0 40 4.5 0 39.5626 4.6437 0 39.5626 4.1437 0 40 6 0 39.5626 5.6437 0 40 5.5 0 39.1252 5.28739 0 39.5626 5.1437 0 39.5626 5.6437 0 40 5 0 40 5.5 0 39.5626 5.1437 0 39.5626 5.6437 0 39.5626 5.1437 0 40 5.5 0 38.2503 4.57478 0 38.6878 4.43109 0 38.6878 4.93109 0 39.1252 4.28739 0 39.1252 4.78739 0 38.6878 4.43109 0 39.1252 5.28739 0 38.6878 4.93109 0 39.1252 4.78739 0 38.6878 4.43109 0 39.1252 4.78739 0 38.6878 4.93109 0 40 5 0 39.5626 5.1437 0 39.5626 4.6437 0 39.1252 5.28739 0 39.1252 4.78739 0 39.5626 5.1437 0 39.1252 4.28739 0 39.5626 4.6437 0 39.1252 4.78739 0 39.5626 5.1437 0 39.1252 4.78739 0 39.5626 4.6437 0 40 8 0 39.5626 7.6437 0 40 7.5 0 39.1252 7.28739 0 39.5626 7.1437 0 39.5626 7.6437 0 40 7 0 40 7.5 0 39.5626 7.1437 0 39.5626 7.6437 0 39.5626 7.1437 0 40 7.5 0 38.2503 6.57478 0 38.6878 6.43109 0 38.6878 6.93109 0 39.1252 6.28739 0 39.1252 6.78739 0 38.6878 6.43109 0 39.1252 7.28739 0 38.6878 6.93109 0 39.1252 6.78739 0 38.6878 6.43109 0 39.1252 6.78739 0 38.6878 6.93109 0 40 6 0 40 6.5 0 39.5626 6.1437 0 40 7 0 39.5626 6.6437 0 40 6.5 0 39.1252 6.28739 0 39.5626 6.1437 0 39.5626 6.6437 0 40 6.5 0 39.5626 6.6437 0 39.5626 6.1437 0 39.1252 7.28739 0 39.1252 6.78739 0 39.5626 7.1437 0 39.1252 6.28739 0 39.5626 6.6437 0 39.1252 6.78739 0 40 7 0 39.5626 7.1437 0 39.5626 6.6437 0 39.1252 6.78739 0 39.5626 6.6437 0 39.5626 7.1437 0 36.5007 5.14957 0 36.9381 5.00587 0 36.9381 5.50587 0 37.3755 4.86218 0 37.3755 5.36218 0 36.9381 5.00587 0 37.3755 5.86218 0 36.9381 5.50587 0 37.3755 5.36218 0 36.9381 5.00587 0 37.3755 5.36218 0 36.9381 5.50587 0 38.2503 4.57478 0 38.2503 5.07478 0 37.8129 4.71848 0 38.2503 5.57478 0 37.8129 5.21848 0 38.2503 5.07478 0 37.3755 4.86218 0 37.8129 4.71848 0 37.8129 5.21848 0 38.2503 5.07478 0 37.8129 5.21848 0 37.8129 4.71848 0 38.2503 6.57478 0 37.8129 6.21848 0 38.2503 6.07478 0 37.3755 5.86218 0 37.8129 5.71848 0 37.8129 6.21848 0 38.2503 5.57478 0 38.2503 6.07478 0 37.8129 5.71848 0 37.8129 6.21848 0 37.8129 5.71848 0 38.2503 6.07478 0 37.3755 4.86218 0 37.8129 5.21848 0 37.3755 5.36218 0 38.2503 5.57478 0 37.8129 5.71848 0 37.8129 5.21848 0 37.3755 5.86218 0 37.3755 5.36218 0 37.8129 5.71848 0 37.8129 5.21848 0 37.8129 5.71848 0 37.3755 5.36218 0 40 6 0 39.5626 6.1437 0 39.5626 5.6437 0 39.1252 6.28739 0 39.1252 5.78739 0 39.5626 6.1437 0 39.1252 5.28739 0 39.5626 5.6437 0 39.1252 5.78739 0 39.5626 6.1437 0 39.1252 5.78739 0 39.5626 5.6437 0 38.2503 6.57478 0 38.2503 6.07478 0 38.6878 6.43109 0 38.2503 5.57478 0 38.6878 5.93109 0 38.2503 6.07478 0 39.1252 6.28739 0 38.6878 6.43109 0 38.6878 5.93109 0 38.2503 6.07478 0 38.6878 5.93109 0 38.6878 6.43109 0 38.2503 4.57478 0 38.6878 4.93109 0 38.2503 5.07478 0 39.1252 5.28739 0 38.6878 5.43109 0 38.6878 4.93109 0 38.2503 5.57478 0 38.2503 5.07478 0 38.6878 5.43109 0 38.6878 4.93109 0 38.6878 5.43109 0 38.2503 5.07478 0 39.1252 6.28739 0 38.6878 5.93109 0 39.1252 5.78739 0 38.2503 5.57478 0 38.6878 5.43109 0 38.6878 5.93109 0 39.1252 5.28739 0 39.1252 5.78739 0 38.6878 5.43109 0 38.6878 5.93109 0 38.6878 5.43109 0 39.1252 5.78739 0 36.5007 5.14957 0 36.9381 5.50587 0 36.5208 5.62983 0 37.3755 5.86218 0 36.9582 5.98614 0 36.9381 5.50587 0 36.5409 6.1101 0 36.5208 5.62983 0 36.9582 5.98614 0 36.9381 5.50587 0 36.9582 5.98614 0 36.5208 5.62983 0 38.2503 6.57478 0 37.833 6.69874 0 37.8129 6.21848 0 37.4157 6.8227 0 37.3956 6.34244 0 37.833 6.69874 0 37.3755 5.86218 0 37.8129 6.21848 0 37.3956 6.34244 0 37.833 6.69874 0 37.3956 6.34244 0 37.8129 6.21848 0 36.581 7.07062 0 36.561 6.59036 0 36.9984 6.94666 0 36.5409 6.1101 0 36.9783 6.4664 0 36.561 6.59036 0 37.4157 6.8227 0 36.9984 6.94666 0 36.9783 6.4664 0 36.561 6.59036 0 36.9783 6.4664 0 36.9984 6.94666 0 37.3755 5.86218 0 37.3956 6.34244 0 36.9582 5.98614 0 37.
[...]
            <PointData>
                <DataArray Name="p" type="Float64" format="ascii">0.117935 0.111354 0.116173 0.104607 0.109487 0.111354 0.114507 0.116173 0.109487 0.111354 0.109487 0.116173 0.0906213 0.0956203 0.0976927 0.100731 0.102631 0.0956203 0.104607 0.0976927 0.102631 0.0956203 0.102631 0.0976927 0.111961 0.113055 0.106111 0.114507 0.107703 0.113055 0.100731 0.106111 0.107703 0.113055 0.107703 0.106111 0.104607 0.102631 0.109487 0.100731 0.107703 0.102631 0.114507 0.109487 0.107703 0.102631 0.107703 0.109487 0.0610203 0.0661989 0.0685784 0.0714535 0.0737509 0.0661989 0.076055 0.0685784 0.0737509 0.0661989 0.0737509 0.0685784 0.0825954 0.084389 0.0768695 0.0863622 0.0789856 0.084389 0.0714535 0.0768695 0.0789856 0.084389 0.0789856 0.0768695 0.0906213 0.0834059 0.0884606 0.076055 0.0811655 0.0834059 0.0863622 0.0884606 0.0811655 0.0834059 0.0811655 0.0884606 0.0714535 0.0789856 0.0737509 0.0863622 0.0811655 0.0789856 0.076055 0.0737509 0.0811655 0.0789856 0.0811655 0.0737509 0.111849 0.11137 0.103408 0.111149 0.103497 0.11137 0.0957291 0.103408 0.103497 0.11137 0.103497 0.103408 0.111961 0.104835 0.111321 0.097544 0.103958 0.104835 0.111149 0.111321 0.103958 0.104835 0.103958 0.111321 0.0825954 0.0888345 0.0901454 0.0957291 0.0964441 0.0888345 0.097544 0.0901454 0.0964441 0.0888345 0.0964441 0.0901454 0.111149 0.103958 0.103497 0.097544 0.0964441 0.103958 0.0957291 0.103497 0.0964441 0.103958 0.0964441 0.103497 0.0906213 0.0884606 0.0956203 0.0863622 0.0936179 0.0884606 0.100731 0.0956203 0.0936179 0.0884606 0.0936179 0.0956203 0.0825954 0.0901454 0.084389 0.097544 0.0917633 0.0901454 0.0863622 0.084389 0.0917633 0.0901454 0.0917633 0.084389 0.111961 0.106111 0.104835 0.100731 0.0989989 0.106111 0.097544 0.104835 0.0989989 0.106111 0.0989989 0.104835 0.0863622 0.0917633 0.0936179 0.097544 0.0989989 0.0917633 0.100731 0.0936179 0.0989989 0.0917633 0.0989989 0.0936179 0.0610203 0.0533654 0.0539525 0.0456357 0.0462079 0.0533654 0.046828 0.0539525 0.0462079 0.0533654 0.0462079 0.0539525 0.0300113 0.0305663 0.0378445 0.0311135 0.0383981 0.0305663 0.0456357 0.0378445 0.0383981 0.0305663 0.0383981 0.0378445 0.0323357 0.0396505 0.031687 0.046828 0.039003 0.0396505 0.0311135 0.031687 0.039003 0.0396505 0.039003 0.031687 0.0456357 0.0383981 0.0462079 0.0311135 0.039003 0.0383981 0.046828 0.0462079 0.039003 0.0383981 0.039003 0.0462079 -0.000965525 -0.000487581 0.00659265 -0.000907816 0.00715567 -0.000487581 0.0143186 0.00659265 0.00715567 -0.000487581 0.00715567 0.00659265 -0.00152873 0.00728709 -0.00131399 0.0153035 0.00734267 0.00728709 -0.000907816 -0.00131399 0.00734267 0.00728709 0.00734267 -0.00131399 0.0300113 0.0221655 0.0227195 0.0143186 0.0149001 0.0221655 0.0153035 0.0227195 0.0149001 0.0221655 0.0149001 0.0227195 -0.000907816 0.00734267 0.00715567 0.0153035 0.0149001 0.00734267 0.0143186 0.00715567 0.0149001 0.00734267 0.0149001 0.00715567 -0.000327377 0.00846175 -0.000742923 0.0168044 0.00785494 0.00846175 -0.00118273 -0.000742923 0.00785494 0.00846175 0.00785494 -0.000742923 0.0323357 0.0241239 0.0247494 0.015778 0.0161819 0.0241239 0.0168044 0.0247494 0.0161819 0.0241239 0.0161819 0.0247494 -0.00152873 -0.00147694 0.00727208 -0.00118273 0.00744138 -0.00147694 0.015778 0.00727208 0.00744138 -0.00147694 0.00744138 0.00727208 0.0168044 0.0161819 0.00785494 0.015778 0.00744138 0.0161819 -0.00118273 0.00785494 0.00744138 0.0161819 0.00744138 0.00785494 0.0300113 0.0227195 0.0305663 0.0153035 0.0232157 0.0227195 0.0311135 0.0305663 0.0232157 0.0227195 0.0232157 0.0305663 -0.00152873 0.00727208 0.00728709 0.015778 0.0155425 0.00727208 0.0153035 0.00728709 0.0155425 0.00727208 0.0155425 0.00728709 0.0323357 0.031687 0.0241239 0.0311135 0.0236433 0.031687 0.015778 0.0241239 0.0236433 0.031687 0.0236433 0.0241239 0.0153035 0.0155425 0.0232157 0.015778 0.0236433 0.0155425 0.0311135 0.0232157 0.0236433 0.0155425 0.0236433 0.0232157 -0.000327377 -5.05384e-05 0.00789508 0.000152275 0.00850003 -5.05384e-05 0.0163232 0.00789508 0.00850003 -5.05384e-05 0.00850003 0.00789508 0.000657866 0.00973818 0.000323721 0.0182335 0.00910954 0.00973818 0.000152275 0.000323721 0.00910954 0.00973818 0.00910954 0.000323721 0.0337024 0.0249502 0.0262125 0.0163232 0.0172564 0.0249502 0.0182335 0.0262125 0.0172564 0.0249502 0.0172564 0.0262125 0.000152275 0.00910954 0.00850003 0.0182335 0.0172564 0.00910954 0.0163232 0.00850003 0.0172564 0.00910954 0.0172564 0.00850003 0.0029619 0.0125398 0.00269897 0.0219129 0.0120432 0.0125398 0.0020166 0.00269897 0.0120432 0.0125398 0.0120432 0.00269897 0.0397347 0.029991 0.0310023 0.0202369 0.0211851 0.029991 0.0219129 0.0310023 0.0211851 0.029991 0.0211851 0.0310023 0.000657866 0.00124817 0.0104736 0.0020166 0.0112802 0.00124817 0.0202369 0.0104736 0.0112802 0.00124817 0.0112802 0.0104736 0.0219129 0.0211851 0.0120432 0.0202369 0.0112802 0.0211851 0.0020166 0.0120432 0.0112802 0.0211851 0.0112802 0.0120432 0.0702534 0.0609352 0.0633334 0.0516805 0.0538411 0.0609352 0.0559293 0.0633334 0.0538411 0.0609352 0.0538411 0.0633334 0.0337024 0.0352751 0.0426595 0.0368748 0.0445191 0.0352751 0.0516805 0.0426595 0.0445191 0.0352751 0.0445191 0.0426595 0.0397347 0.0480521 0.0383874 0.0559293 0.0463589 0.0480521 0.0368748 0.0383874 0.0463589 0.0480521 0.0463589 0.0383874 0.0516805 0.0445191 0.0538411 0.0368748 0.0463589 0.0445191 0.0559293 0.0538411 0.0463589 0.0445191 0.0463589 0.0538411 0.000657866 0.0104736 0.00973818 0.0202369 0.0192243 0.0104736 0.0182335 0.00973818 0.0192243 0.0104736 0.0192243 0.00973818 0.0397347 0.0383874 0.029991 0.0368748 0.0287819 0.0383874 0.0202369 0.029991 0.0287819 0.0383874 0.0287819 0.029991 0.0337024 0.0262125 0.0352751 0.0182335 0.0275141 0.0262125 0.0368748 0.0352751 0.0275141 0.0262125 0.0275141 0.0352751 0.0202369 0.0287819 0.0192243 0.0368748 0.0275141 0.0287819 0.0182335 0.0192243 0.0275141 0.0287819 0.0275141 0.0192243 0.0702534 0.0633334 0.0724327 0.0559293 0.0650927 0.0633334 0.0743531 0.0724327 0.0650927 0.0633334 0.0650927 0.0724327 0.0397347 0.0490146 0.0480521 0.0583104 0.0572914 0.0490146 0.0559293 0.0480521 0.0572914 0.0490146 0.0572914 0.0480521 0.0769624 0.0759159 0.0676371 0.0743531 0.0665748 0.0759159 0.0583104 0.0676371 0.0665748 0.0759159 0.0665748 0.0676371 0.0559293 0.0572914 0.0650927 0.0583104 0.0665748 0.0572914 0.0743531 0.0650927 0.0665748 0.0572914 0.0665748 0.0650927 0.0029619 0.0122083 0.0125398 0.0214185 0.0218597 0.0122083 0.0219129 0.0125398 0.0218597 0.0122083 0.0218597 0.0125398 0.0396259 0.0402951 0.0305681 0.0405234 0.0311151 0.0402951 0.0214185 0.0305681 0.0311151 0.0402951 0.0311151 0.0305681 0.0397347 0.0310023 0.0403195 0.0219129 0.0312492 0.0310023 0.0405234 0.0403195 0.0312492 0.0310023 0.0312492 0.0403195 0.0214185 0.0311151 0.0218597 0.0405234 0.0312492 0.0311151 0.0219129 0.0218597 0.0312492 0.0311151 0.0312492 0.0218597 0.0750639 0.0764445 0.0662913 0.0772388 0.0675051 0.0764445 0.0575028 0.0662913 0.0675051 0.0764445 0.0675051 0.0662913 0.0769624 0.0681742 0.0774151 0.0589455 0.0681307 0.0681742 0.0772388 0.0774151 0.0681307 0.0681742 0.0681307 0.0774151 0.0396259 0.0486076 0.0494307 0.0575028 0.0584775 0.0486076 0.0589455 0.0494307 0.0584775 0.0486076 0.0584775 0.0494307 0.0772388 0.0681307 0.0675051 0.0589455 0.0584775 0.0681307 0.0575028 0.0675051 0.0584775 0.0681307 0.0584775 0.0675051 0.0397347 0.0403195 0.0490146 0.0405234 0.0496137 0.0403195 0.0583104 0.0490146 0.0496137 0.0403195 0.0496137 0.0490146 0.0396259 0.0494307 0.0402951 0.0589455 0.0497626 0.0494307 0.0405234 0.0402951 0.0497626 0.0494307 0.0497626 0.0402951 0.0769624 0.0676371 0.0681742 0.0583104 0.0588841 0.0676371 0.0589455 0.0681742 0.0588841 0.0676371 0.0588841 0.0681742 0.0405234 0.0497626 0.0496137 0.0589455 0.0588841 0.0497626 0.0583104 0.0496137 0.0588841 0.0497626 0.0588841 0.0496137 0.0610203 0.0539525 0.0606632 0.046828 0.0536725 0.0539525 0.0605329 0.0606632 0.0536725 0.0539525 0.0536725 0.0606632 0.0323357 0.0395735 0.0396505 0.0469151 0.0466652 0.0395735 0.046828 0.0396505 0.0466652 0.0395735 0.0466652 0.0396505 0.061913 0.0608762 0.0543495 0.0605329 0.053717 0.0608762 0.0469151 0.0543495 0.053717 0.0608762 0.053717 0.0543495 0.046828 0.0466652 0.0536725 0.0469151 0.053717 0.0466652 0.0605329 0.0536725 0.053717 0.0466652 0.053717 0.0536725 -0.000327377 0.00789508 0.00846175 0.0163232 0.016539 0.00789508 0.0168044 0.00846175 0.016539 0.00789508 0.016539 0.00846175 0.0337024 0.0331196 0.0249502 0.0325822 0.0247596 0.0331196 0.0163232 0.0249502 0.0247596 0.0331196 0.0247596 0.0249502 0.0323357 0.0247494 0.0322825 0.0168044 0.0246332 0.0247494 0.0325822 0.0322825 0.0246332 0.0247494 0.0246332 0.0322825 0.0163232 0.0247596 0.016539 0.0325822 0.0246332 0.0247596 0.0168044 0.016539 0.0246332 0.0247596 0.0246332 0.016539 0.0702534 0.0681041 0.0609352 0.0658184 0.0591747 0.0681041 0.0516805 0.0609352 0.0591747 0.0681041 0.0591747 0.0609352 0.061913 0.0556201 0.0636574 0.0488881 0.0573305 0.0556201 0.0658184 0.0636574 0.0573305 0.0556201 0.0573305 0.0636574 0.0337024 0.0426595 0.0416545 0.0516805 0.0502884 0.0426595 0.0488881 0.0416545 0.0502884 0.0426595 0.0502884 0.0416545 0.0658184 0.0573305 0.0591747 0.0488881 0.0502884 0.0573305 0.0516805 0.0591747 0.0502884 0.0573305 0.0502884 0.0591747 0.0323357 0.0322825 0.0395735 0.0325822 0.0399153 0.0322825 0.0469151 0.0395735 0.0399153 0.0322825 0.0399153 0.0395735 0.0337024 0.0416545 0.0331196 0.0488881 0.0406702 0.0416545 0.0325822 0.0331196 0.0406702 0.0416545 0.0406702 0.0331196 0.061913 0.0543495 0.0556201 0.0469151 0.047692 0.0543495 0.0488881 0.0556201 0.047692 0.0543495 0.047692 0.0556201 0.0325822 0.0406702 0.0399153 0.0488881 0.047692 0.0406702 0.0469151 0.0399153 0.047692 0.0406702 0.047692 0.0399153 0.175528 0.164214 0.167656 0.15403 0.156728 0.164214 0.1597 0.167656 0.156728 0.164214 0.156728 0.167656 0.13784 0.138542 0.145201 0.139869 0.14697 0.138542 0.15403 0.145201 0.14697 0.138542 0.14697 0.145201 0.143754 0.151738 0.141672 0.1597 0.149218 0.151738 0.139869 0.141672 0.149218 0.151738 0.149218 0.141672 0.15403 0.14697 0.156728 0.139869 0.149218 0.14697 0.1597 0.156728 0.149218 0.14697 0.149218 0.156728 0.117935 0.116173 0.122203 0.114507 0.120673 0.116173 0.126721 0.122203 0.120673 0.116173 0.120673 0.122203 0.111961 0.118551 0.113055 0.125059 0.119405 0.118551 0.114507 0.113055 0.119405 0.118551 0.119405 0.113055 0.13784 0.131794 0.131491 0.126721 0.125652 0.131794 0.125059 0.131491 0.125652 0.131794 0.125652 0.131491 0.114507 0.119405 0.120673 0.125059 0.125652 0.119405 0.126721 0.120673 0.125652 0.119405 0.125652 0.120673 0.111849 0.11981 0.11137 0.127787 0.11896 0.11981 0.111149 0.11137 0.11896 0.11981 0.11896 0.11137 0.143754 0.134116 0.13577 0.125572 0.126542 0.134116 0.127787 0.13577 0.126542 0.134116 0.126542 0.13577 0.111961 0.111321 0.118208 0.111149 0.118378 0.111321 0.125572 0.118208 0.118378 0.111321 0.118378 0.118208 0.127787 0.126542 0.11896 0.125572 0.118378 0.126542 0.111149 0.11896 0.118378 0.126542 0.118378 0.11896 0.13784 0.131491 0.138542 0.125059 0.131813 0.131491 0.139869 0.138542 0.131813 0.131491 0.131813 0.138542 0.111961 0.118208 0.118551 0.125572 0.12504 0.118208 0.125059 0.118551 0.12504 0.118208 0.12504 0.118551 0.143754 0.141672 0.134116 0.139869 0.132739 0.141672 0.125572 0.134116 0.132739 0.141672 0.132739 0.134116 0.125059 0.12504 0.131813 0.125572 0.132739 0.12504 0.139869 0.131813 0.132739 0.12504 0.132739 0.131813 0.0610203 0.0606632 0.0661989 0.0605329 0.0660195 0.0606632 0.0714535 0.0661989 0.0660195 0.0606632 0.0660195 0.0661989 0.061913 0.067208 0.0608762 0.0723873 0.0662417 0.067208 0.0605329 0.0608762 0.0662417 0.067208 0.0662417 0.0608762 0.0825954 0.0768695 0.0775232 0.0714535 0.0715935 0.0768695 0.0723873 0.0775232 0.0715935 0.0768695 0.0715935 0.0775232 0.0605329 0.0662417 0.0660195 0.0723873 0.0715935 0.0662417 0.0714535 0.0660195 0.0715935 0.0662417 0.0715935 0.0660195 0.0702534 0.0765426 0.0681041 0.0825443 0.0739881 0.0765426 0.0658184 0.0681041 0.0739881 0.0765426 0.0739881 0.0681041 0.0935493 0.0848571 0.0881778 0.0766331 0.0795678 0.0848571 0.0825443 0.0881778 0.0795678 0.0848571 0.0795678 0.0881778 0.061913 0.0636574 0.0689896 0.0658184 0.0713595 0.0636574 0.0766331 0.0689896 0.0713595 0.0636574 0.0713595 0.0689896 0.0825443 0.0795678 0.0739881 0.0766331 0.0713595 0.0795678 0.0658184 0.0739881 0.0713595 0.0795678 0.0713595 0.0739881 0.111849 0.103408 0.107636 0.0957291 0.0990093 0.103408 0.103284 0.107636 0.0990093 0.103408 0.0990093 0.107636 0.0825954 0.0839887 0.0888345 0.0864986 0.0911157 0.0839887 0.0957291 0.0888345 0.0911157 0.0839887 0.0911157 0.0888345 0.0935493 0.0985147 0.0898313 0.103284 0.094597 0.0985147 0.0864986 0.0898313 0.094597 0.0985147 0.094597 0.0898313 0.0957291 0.0911157 0.0990093 0.0864986 0.094597 0.0911157 0.103284 0.0990093 0.094597 0.0911157 0.094597 0.0990093 0.061913 0.0689896 0.067208 0.0766331 0.0741313 0.0689896 0.0723873 0.067208 0.0741313 0.0689896 0.0741313 0.067208 0.0935493 0.0898313 0.0848571 0.0864986 0.0816531 0.0898313 0.0766331 0.0848571 0.0816531 0.0898313 0.0816531 0.0848571 0.0825954 0.0775232 0.0839887 0.0723873 0.0791211 0.0775232 0.0864986 0.0839887 0.0791211 0.0775232 0.0791211 0.0839887 0.0766331 0.0816531 0.0741313 0.0864986 0.0791211 0.0816531 0.0723873 0.0741313 0.0791211 0.0816531 0.0791211 0.0741313 0.111849 0.107636 0.1181 0.103284 0.113825 0.107636 0.124791 0.1181 0.113825 0.107636 0.113825 0.1181 0.0935493 0.104373 0.0985147 0.115565 0.109301 0.104373 0.103284 0.0985147 0.109301 0.104373 0.109301 0.0985147 0.138915 0.131777 0.127026 0.124791 0.120324 0.131777 0.115565 0.127026 0.120324 0.131777 0.120324 0.127026 0.103284 0.109301 0.113825 0.115565 0.120324 0.109301 0.124791 0.113825 0.120324 0.109301 0.120324 0.113825 0.0702534 0.0813582 0.0765426 0.0927173 0.0876193 0.0813582 0.0825443 0.0765426 0.0876193 0.0813582 0.0876193 0.0765426 0.116168 0.110573 0.104322 0.104854 0.0989523 0.110573 0.0927173 0.104322 0.0989523 0.110573 0.0989523 0.104322 0.0935493 0.0881778 0.0991448 0.0825443 0.0935428 0.0881778 0.104854 0.0991448 0.0935428 0.0881778 0.0935428 0.0991448 0.0927173 0.0989523 0.0876193 0.104854 0.0935428 0.0989523 0.0825443 0.0876193 0.0935428 0.0989523 0.0935428 0.0876193 0.165807 0.159808 0.153133 0.153128 0.147096 0.159808 0.140568 0.153133 0.147096 0.159808 0.147096 0.153133 0.138915 0.133825 0.146088 0.128365 0.140583 0.133825 0.153128 0.146088 0.140583 0.133825 0.140583 0.146088 0.116168 0.128269 0.122461 0.140568 0.134639 0.128269 0.128365 0.122461 0.134639 0.128269 0.134639 0.122461 0.153128 0.140583 0.147096 0.128365 0.134639 0.140583 0.140568 0.147096 0.134639 0.140583 0.134639 0.147096 0.0935493 0.0991448 0.104373 0.104854 0.110372 0.0991448 0.115565 0.104373 0.110372 0.0991448 0.110372 0.104373 0.116168 0.122461 0.110573 0.128365 0.116443 0.122461 0.104854 0.110573 0.116443 0.122461 0.116443 0.110573 0.138915 0.127026 0.133825 0.115565 0.121959 0.127026 0.128365 0.133825 0.121959 0.127026 0.121959 0.133825 0.104854 0.116443 0.110372 0.128365 0.121959 0.116443 0.115565 0.110372 0.121959 0.116443 0.121959 0.110372 0.175528 0.167656 0.177079 0.1597 0.168655 0.167656 0.178039 0.177079 0.168655 0.167656 0.168655 0.177079 0.143754 0.151766 0.151738 0.160212 0.16022 0.151766 0.1597 0.151738 0.16022 0.151766 0.16022 0.151738 0.177863 0.178361 0.168965 0.178039 0.16915 0.178361 0.160212 0.168965 0.16915 0.178361 0.16915 0.168965 0.1597 0.16022 0.168655 0.160212 0.16915 0.16022 0.178039 0.168655 0.16915 0.16022 0.16915 0.168655 0.111849 0.1181 0.11981 0.124791 0.12648 0.1181 0.127787 0.11981 0.12648 0.1181 0.12648 0.11981 0.138915 0.140999 0.131777 0.142433 0.133594 0.140999 0.124791 0.131777 0.133594 0.140999 0.133594 0.131777 0.143754 0.13577 0.14332 0.127787 0.13489 0.13577 0.142433 0.14332 0.13489 0.13577 0.13489 0.14332 0.124791 0.133594 0.12648 0.142433 0.13489 0.133594 0.127787 0.12648 0.13489 0.133594 0.13489 0.12648 0.165807 0.170562 0.159808 0.174092 0.163568 0.170562 0.153128 0.159808 0.163568 0.170562 0.163568 0.159808 0.177863 0.168045 0.176493 0.158259 0.166269 0.168045 0.174092 0.176493 0.166269 0.168045 0.166269 0.176493 0.138915 0.146088 0.148558 0.153128 0.156138 0.146088 0.158259 0.148558 0.156138 0.146088 0.156138 0.148558 0.174092 0.166269 0.163568 0.158259 0.156138 0.166269 0.153128 0.163568 0.156138 0.166269 0.156138 0.163568 0.143754 0.14332 0.151766 0.142433 0.151317 0.14332 0.160212 0.151766 0.151317 0.14332 0.151317 0.151766 0.138915 0.148558 0.140999 0.158259 0.150272 0.148558 0.142433 0.140999 0.150272 0.148558 0.150272 0.140999 0.177863 0.168965 0.168045 0.160212 0.159602 0.168965 0.158259 0.168045 0.159602 0.168965 0.159602 0.168045 0.142433 0.150272 0.151317 0.158259 0.159602 0.150272 0.160212 0.151317 0.159602 0.150272 0.159602 0.151317 0.0702534 0.0724327 0.0813582 0.0743531 0.0837685 0.0724327 0.0927173 0.0813582 0.0837685 0.0724327 0.0837685 0.0813582 0.0769624 0.0873914 0.0759159 0.097427 0.0858218 0.0873914 0.0743531 0.0759159 0.0858218 0.0873914 0.0858218 0.0759159 0.116168 0.104322 0.107049 0.0927173 0.0953108 0.104322 0.097427 0.107049 0.0953108 0.104322 0.0953108 0.107049 0.0743531 0.0858218 0.0837685 0.097427 0.0953108 0.0858218 0.0927173 0.0837685 0.0953108 0.0858218 0.0953108 0.0837685 0.0750639 0.0870352 0.0764445 0.0989627 0.0881493 0.0870352 0.0772388 0.0764445 0.0881493 0.0870352 0.0881493 0.0764445 0.122432 0.111092 0.110777 0.0997038 0.0997164 0.111092 0.0989627 0.110777 0.0997164 0.111092 0.0997164 0.110777 0.0769624 0.0774151 0.0883346 0.0772388 0.0885856 0.0774151 0.0997038 0.0883346 0.0885856 0.0774151 0.0885856 0.0883346 0.0989627 0.0997164 0.0881493 0.0997038 0.0885856 0.0997164 0.0772388 0.0881493 0.0885856 0.0997164 0.0885856 0.0881493 0.165807 0.153133 0.155678 0.140568 0.143318 0.153133 0.144965 0.155678 0.143318 0.153133 0.143318 0.155678 0.116168 0.118972 0.128269 0.121015 0.131069 0.118972 0.140568 0.128269 0.131069 0.118972 0.131069 0.128269 0.122432 0.133859 0.122205 0.144965 0.132988 0.133859 0.121015 0.122205 0.132988 0.133859 0.132988 0.122205 0.140568 0.131069 0.143318 0.121015 0.132988 0.131069 0.144965 0.143318 0.132988 0.131069 0.132988 0.143318 0.0769624 0.0883346 0.0873914 0.0997038 0.0989386 0.0883346 0.097427 0.0873914 0.0989386 0.0883346 0.0989386 0.0873914 0.122432 0.122205 0.111092 0.121015 0.110545 0.122205 0.0997038 0.111092 0.110545 0.122205 0.110545 0.111092 0.116168 0.107049 0.118972 0.097427 0.109176 0.107049 0.121015 0.118972 0.109176 0.107049 0.109176 0.118972 0.0997038 0.110545 0.0989386 0.121015 0.109176 0.110545 0.097427 0.0989386 0.109176 0.110545 0.109176 0.0989386 </DataArray>