<?xml version="1.0" encoding="UTF-8"?>
<VTKFile type="UnstructuredGrid" version="0.1" byte_order="LittleEndian" compressor="vtkZLibDataCompressor">
    <UnstructuredGrid>
        <Piece NumberOfPoints="1920" NumberOfCells="640">
            <Points>
                <DataArray type="Float64" Name="Array" NumberOfComponents="3" format="ascii" RangeMin="0" RangeMax="19.228137177416802">15.7071 8 0 15.7456 7.86407 0 15.8578 7.98575 0 15.7841 7.72814 0 15.8963 7.84982 0 15.7456 7.86407 0 16.0085 7.97149 0 15.8578 7.98575 0 15.8963 7.84982 0 15.7456 7.86407 0 15.8963 7.84982 0 15.8578 7.98575 0 15.861 7.45628 0 15.9732 7.57796 0 15.8225 7.59221 0 16.0854 7.69963 0 15.9348 7.71389 0 15.9732 7.57796 0 15.7841 7.72814 0 15.8225 7.59221 0 15.9348 7.71389 0 15.9732 7.57796 0 15.9348 7.71389 0 15.8225 7.59221 0 16.3099 7.94298 0 16.1592 7.95724 0 16.1977 7.82131 0 16.0085 7.97149 0 16.047 7.83556 0 16.1592 7.95724 0 16.0854 7.69963 0 16.1977 7.82131 0 16.047 7.83556 0 16.1592 7.95724 0 16.047 7.83556 0 16.1977 7.82131 0 15.7841 7.72814 0 15.9348 7.71389 0 15.8963 7.84982 0 16.0854 7.69963 0 16.047 7.83556 0 15.9348 7.71389 0 16.0085 7.97149 0 15.8963 7.84982 0 16.047 7.83556 0 15.9348 7.71389 0 16.047 7.83556 0 15.8963 7.84982 0 16.0149 6.91257 0 16.1271 7.03424 0 15.9764 7.0485 0 16.2394 7.15592 0 16.0887 7.17017 0 16.1271 7.03424 0 15.938 7.18443 0 15.9764 7.0485 0 16.0887 7.17017 0 16.1271 7.03424 0 16.0887 7.17017 0 15.9764 7.0485 0 16.4638 7.39927 0 16.3131 7.41352 0 16.3516 7.27759 0 16.1624 7.42778 0 16.2009 7.29185 0 16.3131 7.41352 0 16.2394 7.15592 0 16.3516 7.27759 0 16.2009 7.29185 0 16.3131 7.41352 0 16.2009 7.29185 0 16.3516 7.27759 0 15.861 7.45628 0 15.8995 7.32036 0 16.0117 7.44203 0 15.938 7.18443 0 16.0502 7.3061 0 15.8995 7.32036 0 16.1624 7.42778 0 16.0117 7.44203 0 16.0502 7.3061 0 15.8995 7.32036 0 16.0502 7.3061 0 16.0117 7.44203 0 16.2394 7.15592 0 16.2009 7.29185 0 16.0887 7.17017 0 16.1624 7.42778 0 16.0502 7.3061 0 16.2009 7.29185 0 15.938 7.18443 0 16.0887 7.17017 0 16.0502 7.3061 0 16.2009 7.29185 0 16.0502 7.3061 0 16.0887 7.17017 0 16.9127 7.88596 0 16.762 7.90022 0 16.8004 7.76429 0 16.6113 7.91447 0 16.6497 7.77854 0 16.762 7.90022 0 16.6882 7.64261 0 16.8004 7.76429 0 16.6497 7.77854 0 16.762 7.90022 0 16.6497 7.77854 0 16.8004 7.76429 0 16.3099 7.94298 0 16.3484 7.80705 0 16.4606 7.92873 0 16.3868 7.67112 0 16.4991 7.7928 0 16.3484 7.80705 0 16.6113 7.91447 0 16.4606 7.92873 0 16.4991 7.7928 0 16.3484 7.80705 0 16.4991 7.7928 0 16.4606 7.92873 0 16.4638 7.39927 0 16.576 7.52094 0 16.4253 7.53519 0 16.6882 7.64261 0 16.5375 7.65687 0 16.576 7.52094 0 16.3868 7.67112 0 16.4253 7.53519 0 16.5375 7.65687 0 16.576 7.52094 0 16.5375 7.65687 0 16.4253 7.53519 0 16.6113 7.91447 0 16.4991 7.7928 0 16.6497 7.77854 0 16.3868 7.67112 0 16.5375 7.65687 0 16.4991 7.7928 0 16.6882 7.64261 0 16.6497 7.77854 0 16.5375 7.65687 0 16.4991 7.7928 0 16.5375 7.65687 0 16.6497 7.77854 0 15.861 7.45628 0 16.0117 7.44203 0 15.9732 7.57796 0 16.1624 7.42778 0 16.1239 7.5637 0 16.0117 7.44203 0 16.0854 7.69963 0 15.9732 7.57796 0 16.1239 7.5637 0 16.0117 7.44203 0 16.1239 7.5637 0 15.9732 7.57796 0 16.4638 7.39927 0 16.4253 7.53519 0 16.3131 7.41352 0 16.3868 7.67112 0 16.2746 7.54945 0 16.4253 7.53519 0 16.1624 7.42778 0 16.3131 7.41352 0 16.2746 7.54945 0 16.4253 7.53519 0 16.2746 7.54945 0 16.3131 7.41352 0 16.3099 7.94298 0 16.1977 7.82131 0 16.3484 7.80705 0 16.0854 7.69963 0 16.2361 7.68538 0 16.1977 7.82131 0 16.3868 7.67112 0 16.3484 7.80705 0 16.2361 7.68538 0 16.1977 7.82131 0 16.2361 7.68538 0 16.3484 7.80705 0 16.1624 7.42778 0 16.2746 7.54945 0 16.1239 7.5637 0 16.3868 7.67112 0 16.2361 7.68538 0 16.2746 7.54945 0 16.0854 7.69963 0 16.1239 7.5637 0 16.2361 7.68538 0 16.2746 7.54945 0 16.2361 7.68538 0 16.1239 7.5637 0 15 8.70711 0 15.1439 8.7516 0 15.0144 8.85338 0 15.2878 8.7961 0 15.1583 8.89788 0 15.1439 8.7516 0 15.0289 8.99966 0 15.0144 8.85338 0 15.1583 8.89788 0 15.1439 8.7516 0 15.1583 8.89788 0 15.0144 8.85338 0 15.5755 8.88508 0 15.4461 8.98687 0 15.4317 8.84059 0 15.3166 9.08865 0 15.3022 8.94237 0 15.4461 8.98687 0 15.2878 8.7961 0 15.4317 8.84059 0 15.3022 8.94237 0 15.4461 8.98687 0 15.3022 8.94237 0 15.4317 8.84059 0 15.0577 9.29221 0 15.0433 9.14594 0 15.1872 9.19043 0 15.0289 8.99966 0 15.1727 9.04415 0 15.0433 9.14594 0 15.3166 9.08865 0 15.1872 9.19043 0 15.1727 9.04415 0 15.0433 9.14594 0 15.1727 9.04415 0 15.1872 9.19043 0 15.2878 8.7961 0 15.3022 8.94237 0 15.1583 8.89788 0 15.3166 9.08865 0 15.1727 9.04415 0 15.3022 8.94237 0 15.0289 8.99966 0 15.1583 8.89788 0 15.1727 9.04415 0 15.3022 8.94237 0 15.1727 9.04415 0 15.1583 8.89788 0 16.1511 9.06306 0 16.0216 9.16484 0 16.0072 9.01857 0 15.8922 9.26663 0 15.8777 9.12035 0 16.0216 9.16484 0 15.8633 8.97407 0 16.0072 9.01857 0 15.8777 9.12035 0 16.0216 9.16484 0 15.8777 9.12035 0 16.0072 9.01857 0 15.6333 9.47019 0 15.6188 9.32391 0 15.7627 9.36841 0 15.6044 9.17764 0 15.7483 9.22213 0 15.6188 9.32391 0 15.8922 9.26663 0 15.7627 9.36841 0 15.7483 9.22213 0 15.6188 9.32391 0 15.7483 9.22213 0 15.7627 9.36841 0 15.5755 8.88508 0 15.7194 8.92958 0 15.59 9.03136 0 15.8633 8.97407 0 15.7339 9.07585 0 15.7194 8.92958 0 15.6044 9.17764 0 15.59 9.03136 0 15.7339 9.07585 0 15.7194 8.92958 0 15.7339 9.07585 0 15.59 9.03136 0 15.8922 9.26663 0 15.7483 9.22213 0 15.8777 9.12035 0 15.6044 9.17764 0 15.7339 9.07585 0 15.7483 9.22213 0 15.8633 8.97407 0 15.8777 9.12035 0 15.7339 9.07585 0 15.7483 9.22213 0 15.7339 9.07585 0 15.8777 9.12035 0 15.1154 9.87732 0 15.101 9.73104 0 15.2449 9.77554 0 15.0866 9.58477 0 15.2304 9.62926 0 15.101 9.73104 0 15.3743 9.67375 0 15.2449 9.77554 0 15.2304 9.62926 0 15.101 9.73104 0 15.2304 9.62926 0 15.2449 9.77554 0 15.0577 9.29221 0 15.2016 9.33671 0 15.0721 9.43849 0 15.3455 9.3812 0 15.216 9.48298 0 15.2016 9.33671 0 15.0866 9.58477 0 15.0721 9.43849 0 15.216 9.48298 0 15.2016 9.33671 0 15.216 9.48298 0 15.0721 9.43849 0 15.6333 9.47019 0 15.5038 9.57197 0 15.4894 9.4257 0 15.3743 9.67375 0 15.3599 9.52748 0 15.5038 9.57197 0 15.3455 9.3812 0 15.4894 9.4257 0 15.3599 9.52748 0 15.5038 9.57197 0 15.3599 9.52748 0 15.4894 9.4257 0 15.0866 9.58477 0 15.216 9.48298 0 15.2304 9.62926 0 15.3455 9.3812 0 15.3599 9.52748 0 15.216 9.48298 0 15.3743 9.67375 0 15.2304 9.62926 0 15.3599 9.52748 0 15.216 9.48298 0 15.3599 9.52748 0 15.2304 9.62926 0 15.5755 8.88508 0 15.59 9.03136 0 15.4461 8.98687 0 15.6044 9.17764 0 15.4605 9.13314 0 15.59 9.03136 0 15.3166 9.08865 0 15.4461 8.98687 0 15.4605 9.13314 0 15.59 9.03136 0 15.4605 9.13314 0 15.4461 8.98687 0 15.6333 9.47019 0 15.4894 9.4257 0 15.6188 9.32391 0 15.3455 9.3812 0 15.4749 9.27942 0 15.4894 9.4257 0 15.6044 9.17764 0 15.6188 9.32391 0 15.4749 9.27942 0 15.4894 9.4257 0 15.4749 9.27942 0 15.6188 9.32391 0 15.0577 9.29221 0 15.1872 9.19043 0 15.2016 9.33671 0 15.3166 9.08865 0 15.3311 9.23492 0 15.1872 9.19043 0 15.3455 9.3812 0 15.2016 9.33671 0 15.3311 9.23492 0 15.1872 9.19043 0 15.3311 9.23492 0 15.2016 9.33671 0 15.6044 9.17764 0 15.4749 9.27942 0 15.4605 9.13314 0 15.3455 9.3812 0 15.3311 9.23492 0 15.4749 9.27942 0 15.3166 9.08865 0 15.4605 9.13314 0 15.3311 9.23492 0 15.4749 9.27942 0 15.3311 9.23492 0 15.4605 9.13314 0 16.9127 7.88596 0 16.8004 7.76429 0 16.9661 7.70913 0 16.6882 7.64261 0 16.8538 7.58745 0 16.8004 7.76429 0 17.0195 7.53229 0 16.9661 7.70913 0 16.8538 7.58745 0 16.8004 7.76429 0 16.8538 7.58745 0 16.9661 7.70913 0 16.4638 7.39927 0 16.6294 7.34411 0 16.576 7.52094 0 16.795 7.28894 0 16.7416 7.46578 0 16.6294 7.34411 0 16.6882 7.64261 0 16.576 7.52094 0 16.7416 7.46578 0 16.6294 7.34411 0 16.7416 7.46578 0 16.576 7.52094 0 17.1263 7.17862 0 17.0729 7.35546 0 16.9607 7.23378 0 17.0195 7.53229 0 16.9073 7.41062 0 17.0729 7.35546 0 16.795 7.28894 0 16.9607 7.23378 0 16.9073 7.41062 0 17.0729 7.35546 0 16.9073 7.41062 0 16.9607 7.23378 0 16.6882 7.64261 0 16.7416 7.46578 0 16.8538 7.58745 0 16.795 7.28894 0 16.9073 7.41062 0 16.7416 7.46578 0 17.0195 7.53229 0 16.8538 7.58745 0 16.9073 7.41062 0 16.7416 7.46578 0 16.9073 7.41062 0 16.8538 7.58745 0 16.0149 6.91257 0 16.1805 6.85741 0 16.1271 7.03424 0 16.3462 6.80225 0 16.2928 6.97908 0 16.1805 6.85741 0 16.2394 7.15592 0 16.1271 7.03424 0 16.2928 6.97908 0 16.1805 6.85741 0 16.2928 6.97908 0 16.1271 7.03424 0 16.6774 6.69193 0 16.624 6.86876 0 16.5118 6.74709 0 16.5706 7.0456 0 16.4584 6.92392 0 16.624 6.86876 0 16.3462 6.80225 0 16.5118 6.74709 0 16.4584 6.92392 0 16.624 6.86876 0 16.4584 6.92392 0 16.5118 6.74709 0 16.4638 7.39927 0 16.3516 7.27759 0 16.5172 7.22243 0 16.2394 7.15592 0 16.405 7.10076 0 16.3516 7.27759 0 16.5706 7.0456 0 16.5172 7.22243 0 16.405 7.10076 0 16.3516 7.27759 0 16.405 7.10076 0 16.5172 7.22243 0 16.3462 6.80225 0 16.4584 6.92392 0 16.2928 6.97908 0 16.5706 7.0456 0 16.405 7.10076 0 16.4584 6.92392 0 16.2394 7.15592 0 16.2928 6.97908 0 16.405 7.10076 0 16.4584 6.92392 0 16.405 7.10076 0 16.2928 6.97908 0 17.3399 6.47128 0 17.2865 6.64812 0 17.1743 6.52644 0 17.2331 6.82495 0 17.1209 6.70328 0 17.2865 6.64812 0 17.0087 6.58161 0 17.1743 6.52644 0 17.1209 6.70328 0 17.2865 6.64812 0 17.1209 6.70328 0 17.1743 6.52644 0 17.1263 7.17862 0 17.0141 7.05695 0 17.1797 7.00179 0 16.9019 6.93528 0 17.0675 6.88011 0 17.0141 7.05695 0 17.2331 6.82495 0 17.1797 7.00179 0 17.0675 6.88011 0 17.0141 7.05695 0 17.0675 6.88011 0 17.1797 7.00179 0 16.6774 6.69193 0 16.843 6.63677 0 16.7896 6.8136 0 17.0087 6.58161 0 16.9553 6.75844 0 16.843 6.63677 0 16.9019 6.93528 0 16.7896 6.8136 0 16.9553 6.75844 0 16.843 6.63677 0 16.9553 6.75844 0 16.7896 6.8136 0 17.2331 6.82495 0 17.0675 6.88011 0 17.1209 6.70328 0 16.9019 6.93528 0 16.9553 6.75844 0 17.0675 6.88011 0 17.0087 6.58161 0 17.1209 6.70328 0 16.9553 6.75844 0 17.0675 6.88011 0 16.9553 6.75844 0 17.1209 6.70328 0 16.4638 7.39927 0 16.5172 7.22243 0 16.6294 7.34411 0 16.5706 7.0456 0 16.6828 7.16727 0 16.5172 7.22243 0 16.795 7.28894 0 16.6294 7.34411 0 16.6828 7.16727 0 16.5172 7.22243 0 16.6828 7.16727 0 16.6294 7.34411 0 16.6774 6
[...]
            <PointData>
                <DataArray Name="p" type="Float64" format="ascii">-1.20549 -1.37473 -1.31977 -1.43837 -1.35228 -1.37473 -1.32214 -1.31977 -1.35228 -1.37473 -1.35228 -1.31977 -1.46644 -1.4012 -1.46558 -1.34095 -1.38716 -1.4012 -1.43837 -1.46558 -1.38716 -1.4012 -1.38716 -1.46558 -1.24754 -1.29126 -1.29034 -1.32214 -1.32982 -1.29126 -1.34095 -1.29034 -1.32982 -1.29126 -1.32982 -1.29034 -1.43837 -1.38716 -1.35228 -1.34095 -1.32982 -1.38716 -1.32214 -1.35228 -1.32982 -1.38716 -1.32982 -1.35228 -1.2451 -1.2671 -1.332 -1.26184 -1.327 -1.2671 -1.39744 -1.332 -1.327 -1.2671 -1.327 -1.332 -1.20302 -1.26748 -1.23896 -1.33091 -1.30357 -1.26748 -1.26184 -1.23896 -1.30357 -1.26748 -1.30357 -1.23896 -1.46644 -1.44233 -1.395 -1.39744 -1.36976 -1.44233 -1.33091 -1.395 -1.36976 -1.44233 -1.36976 -1.395 -1.26184 -1.30357 -1.327 -1.33091 -1.36976 -1.30357 -1.39744 -1.327 -1.36976 -1.30357 -1.36976 -1.327 -1.00468 -1.0709 -1.05634 -1.13457 -1.12154 -1.0709 -1.1081 -1.05634 -1.12154 -1.0709 -1.12154 -1.05634 -1.24754 -1.24052 -1.19416 -1.23395 -1.18356 -1.24052 -1.13457 -1.19416 -1.18356 -1.24052 -1.18356 -1.19416 -1.20302 -1.15807 -1.22249 -1.1081 -1.17268 -1.15807 -1.23395 -1.22249 -1.17268 -1.15807 -1.17268 -1.22249 -1.13457 -1.18356 -1.12154 -1.23395 -1.17268 -1.18356 -1.1081 -1.12154 -1.17268 -1.18356 -1.17268 -1.12154 -1.46644 -1.395 -1.4012 -1.33091 -1.3431 -1.395 -1.34095 -1.4012 -1.3431 -1.395 -1.3431 -1.4012 -1.20302 -1.22249 -1.26748 -1.23395 -1.28424 -1.22249 -1.33091 -1.26748 -1.28424 -1.22249 -1.28424 -1.26748 -1.24754 -1.29034 -1.24052 -1.34095 -1.29037 -1.29034 -1.23395 -1.24052 -1.29037 -1.29034 -1.29037 -1.24052 -1.33091 -1.28424 -1.3431 -1.23395 -1.29037 -1.28424 -1.34095 -1.3431 -1.29037 -1.28424 -1.29037 -1.3431 -3.2423 -2.76479 -2.16577 -2.02875 -2.03429 -2.76479 -1.40307 -2.16577 -2.03429 -2.76479 -2.03429 -2.16577 -1.5903 -1.59232 -1.77219 -1.45057 -1.79527 -1.59232 -2.02875 -1.77219 -1.79527 -1.59232 -1.79527 -1.77219 -0.613825 -0.949594 -1.08442 -1.40307 -1.52787 -0.949594 -1.45057 -1.08442 -1.52787 -0.949594 -1.52787 -1.08442 -2.02875 -1.79527 -2.03429 -1.45057 -1.52787 -1.79527 -1.40307 -2.03429 -1.52787 -1.79527 -1.52787 -2.03429 -1.21344 -1.18977 -1.28752 -1.12721 -1.26649 -1.18977 -1.36936 -1.28752 -1.26649 -1.18977 -1.26649 -1.28752 -0.846247 -1.05927 -1.01322 -1.27309 -1.19696 -1.05927 -1.12721 -1.01322 -1.19696 -1.05927 -1.19696 -1.01322 -1.5903 -1.46518 -1.4588 -1.36936 -1.35279 -1.46518 -1.27309 -1.4588 -1.35279 -1.46518 -1.35279 -1.4588 -1.12721 -1.19696 -1.26649 -1.27309 -1.35279 -1.19696 -1.36936 -1.26649 -1.35279 -1.19696 -1.35279 -1.26649 0.0252979 -0.0773207 -0.185798 -0.20734 -0.328604 -0.0773207 -0.412385 -0.185798 -0.328604 -0.0773207 -0.328604 -0.185798 -0.613825 -0.759489 -0.379485 -0.828581 -0.513821 -0.759489 -0.20734 -0.379485 -0.513821 -0.759489 -0.513821 -0.379485 -0.846247 -0.638679 -0.850569 -0.412385 -0.596464 -0.638679 -0.828581 -0.850569 -0.596464 -0.638679 -0.596464 -0.850569 -0.20734 -0.513821 -0.328604 -0.828581 -0.596464 -0.513821 -0.412385 -0.328604 -0.596464 -0.513821 -0.596464 -0.328604 -1.5903 -1.4588 -1.59232 -1.27309 -1.36092 -1.4588 -1.45057 -1.59232 -1.36092 -1.4588 -1.36092 -1.59232 -0.846247 -0.850569 -1.05927 -0.828581 -1.09644 -0.850569 -1.27309 -1.05927 -1.09644 -0.850569 -1.09644 -1.05927 -0.613825 -1.08442 -0.759489 -1.45057 -1.12018 -1.08442 -0.828581 -0.759489 -1.12018 -1.08442 -1.12018 -0.759489 -1.27309 -1.09644 -1.36092 -0.828581 -1.12018 -1.09644 -1.45057 -1.36092 -1.12018 -1.09644 -1.12018 -1.36092 -1.00468 -1.05634 -0.982866 -1.1081 -1.03454 -1.05634 -0.958741 -0.982866 -1.03454 -1.05634 -1.03454 -0.982866 -1.20302 -1.12699 -1.15807 -1.04825 -1.08363 -1.12699 -1.1081 -1.15807 -1.08363 -1.12699 -1.08363 -1.15807 -0.888519 -0.92835 -0.96838 -0.958741 -1.00648 -0.92835 -1.04825 -0.96838 -1.00648 -0.92835 -1.00648 -0.96838 -1.1081 -1.08363 -1.03454 -1.04825 -1.00648 -1.08363 -0.958741 -1.03454 -1.00648 -1.08363 -1.00648 -1.03454 -1.2451 -1.15868 -1.2671 -1.07493 -1.18254 -1.15868 -1.26184 -1.2671 -1.18254 -1.15868 -1.18254 -1.2671 -0.91328 -1.01623 -0.993507 -1.09899 -1.09919 -1.01623 -1.07493 -0.993507 -1.09919 -1.01623 -1.09919 -0.993507 -1.20302 -1.23896 -1.16078 -1.26184 -1.18097 -1.23896 -1.09899 -1.16078 -1.18097 -1.23896 -1.18097 -1.16078 -1.07493 -1.09919 -1.18254 -1.09899 -1.18097 -1.09919 -1.26184 -1.18254 -1.18097 -1.09919 -1.18097 -1.18254 -0.613347 -0.697251 -0.6844 -0.773015 -0.773752 -0.697251 -0.758306 -0.6844 -0.773752 -0.697251 -0.773752 -0.6844 -0.888519 -0.917593 -0.837068 -0.934126 -0.852644 -0.917593 -0.773015 -0.837068 -0.852644 -0.917593 -0.852644 -0.837068 -0.91328 -0.834794 -0.933942 -0.758306 -0.852891 -0.834794 -0.934126 -0.933942 -0.852891 -0.834794 -0.852891 -0.933942 -0.773015 -0.852644 -0.773752 -0.934126 -0.852891 -0.852644 -0.758306 -0.773752 -0.852891 -0.852644 -0.852891 -0.773752 -1.20302 -1.16078 -1.12699 -1.09899 -1.08042 -1.16078 -1.04825 -1.12699 -1.08042 -1.16078 -1.08042 -1.12699 -0.91328 -0.933942 -1.01623 -0.934126 -1.01654 -0.933942 -1.09899 -1.01623 -1.01654 -0.933942 -1.01654 -1.01623 -0.888519 -0.96838 -0.917593 -1.04825 -0.999089 -0.96838 -0.934126 -0.917593 -0.999089 -0.96838 -0.999089 -0.917593 -1.09899 -1.01654 -1.08042 -0.934126 -0.999089 -1.01654 -1.04825 -1.08042 -0.999089 -1.01654 -0.999089 -1.08042 -1.21344 -1.23879 -1.14276 -1.23584 -1.16109 -1.23879 -1.06895 -1.14276 -1.16109 -1.23879 -1.16109 -1.14276 -1.17699 -1.13214 -1.2131 -1.07422 -1.15596 -1.13214 -1.23584 -1.2131 -1.15596 -1.13214 -1.15596 -1.2131 -0.919436 -0.995119 -1.00294 -1.06895 -1.08279 -0.995119 -1.07422 -1.00294 -1.08279 -0.995119 -1.08279 -1.00294 -1.23584 -1.15596 -1.16109 -1.07422 -1.08279 -1.15596 -1.06895 -1.16109 -1.08279 -1.15596 -1.08279 -1.16109 -1.00468 -0.964649 -1.04614 -0.926026 -1.00866 -0.964649 -1.08927 -1.04614 -1.00866 -0.964649 -1.00866 -1.04614 -0.844745 -0.928555 -0.886831 -1.01274 -0.970424 -0.928555 -0.926026 -0.886831 -0.970424 -0.928555 -0.970424 -0.886831 -1.17699 -1.13388 -1.09609 -1.08927 -1.05336 -1.13388 -1.01274 -1.09609 -1.05336 -1.13388 -1.05336 -1.09609 -0.926026 -0.970424 -1.00866 -1.01274 -1.05336 -0.970424 -1.08927 -1.00866 -1.05336 -0.970424 -1.05336 -1.00866 -0.620883 -0.693571 -0.685803 -0.767996 -0.763177 -0.693571 -0.745126 -0.685803 -0.763177 -0.693571 -0.763177 -0.685803 -0.919436 -0.922622 -0.843615 -0.908375 -0.842391 -0.922622 -0.767996 -0.843615 -0.842391 -0.922622 -0.842391 -0.843615 -0.844745 -0.797889 -0.880818 -0.745126 -0.825949 -0.797889 -0.908375 -0.880818 -0.825949 -0.797889 -0.825949 -0.880818 -0.767996 -0.842391 -0.763177 -0.908375 -0.825949 -0.842391 -0.745126 -0.763177 -0.825949 -0.842391 -0.825949 -0.763177 -1.17699 -1.09609 -1.13214 -1.01274 -1.04898 -1.09609 -1.07422 -1.13214 -1.04898 -1.09609 -1.04898 -1.13214 -0.844745 -0.880818 -0.928555 -0.908375 -0.964886 -0.880818 -1.01274 -0.928555 -0.964886 -0.880818 -0.964886 -0.928555 -0.919436 -1.00294 -0.922622 -1.07422 -0.991458 -1.00294 -0.908375 -0.922622 -0.991458 -1.00294 -0.991458 -0.922622 -1.01274 -0.964886 -1.04898 -0.908375 -0.991458 -0.964886 -1.07422 -1.04898 -0.991458 -0.964886 -0.991458 -1.04898 0.0252979 -0.185798 -0.0749606 -0.412385 -0.256883 -0.185798 -0.136954 -0.0749606 -0.256883 -0.185798 -0.256883 -0.0749606 -0.846247 -0.62314 -0.638679 -0.44635 -0.442826 -0.62314 -0.412385 -0.638679 -0.442826 -0.62314 -0.442826 -0.638679 -0.189873 -0.173197 -0.304475 -0.136954 -0.292081 -0.173197 -0.44635 -0.304475 -0.292081 -0.173197 -0.292081 -0.304475 -0.412385 -0.442826 -0.256883 -0.44635 -0.292081 -0.442826 -0.136954 -0.256883 -0.292081 -0.442826 -0.292081 -0.256883 -1.21344 -1.07918 -1.18977 -0.918006 -1.01839 -1.07918 -1.12721 -1.18977 -1.01839 -1.07918 -1.01839 -1.18977 -0.597693 -0.660698 -0.752147 -0.724214 -0.834259 -0.660698 -0.918006 -0.752147 -0.834259 -0.660698 -0.834259 -0.752147 -0.846247 -1.01322 -0.786032 -1.12721 -0.920457 -1.01322 -0.724214 -0.786032 -0.920457 -1.01322 -0.920457 -0.786032 -0.918006 -0.834259 -1.01839 -0.724214 -0.920457 -0.834259 -1.12721 -1.01839 -0.920457 -0.834259 -0.920457 -1.01839 -0.155254 -0.173711 -0.242566 -0.186797 -0.267599 -0.173711 -0.343779 -0.242566 -0.267599 -0.173711 -0.267599 -0.242566 -0.189873 -0.301461 -0.193207 -0.4088 -0.287998 -0.301461 -0.186797 -0.193207 -0.287998 -0.301461 -0.287998 -0.193207 -0.597693 -0.461375 -0.508418 -0.343779 -0.378242 -0.461375 -0.4088 -0.508418 -0.378242 -0.461375 -0.378242 -0.508418 -0.186797 -0.287998 -0.267599 -0.4088 -0.378242 -0.287998 -0.343779 -0.267599 -0.378242 -0.287998 -0.378242 -0.267599 -0.846247 -0.786032 -0.62314 -0.724214 -0.592627 -0.786032 -0.44635 -0.62314 -0.592627 -0.786032 -0.592627 -0.62314 -0.597693 -0.508418 -0.660698 -0.4088 -0.552817 -0.508418 -0.724214 -0.660698 -0.552817 -0.508418 -0.552817 -0.660698 -0.189873 -0.304475 -0.301461 -0.44635 -0.432663 -0.304475 -0.4088 -0.301461 -0.432663 -0.304475 -0.432663 -0.301461 -0.724214 -0.552817 -0.592627 -0.4088 -0.432663 -0.552817 -0.44635 -0.592627 -0.432663 -0.552817 -0.432663 -0.592627 -1.21344 -1.14276 -1.07918 -1.06895 -1.02155 -1.14276 -0.918006 -1.07918 -1.02155 -1.14276 -1.02155 -1.07918 -0.919436 -0.892982 -0.995119 -0.827362 -0.957856 -0.892982 -1.06895 -0.995119 -0.957856 -0.892982 -0.957856 -0.995119 -0.597693 -0.752147 -0.726222 -0.918006 -0.876911 -0.752147 -0.827362 -0.726222 -0.876911 -0.752147 -0.876911 -0.726222 -1.06895 -0.957856 -1.02155 -0.827362 -0.876911 -0.957856 -0.918006 -1.02155 -0.876911 -0.957856 -0.876911 -1.02155 -0.620883 -0.621951 -0.693571 -0.601235 -0.689576 -0.621951 -0.767996 -0.693571 -0.689576 -0.621951 -0.689576 -0.693571 -0.497341 -0.60619 -0.558686 -0.718242 -0.66029 -0.60619 -0.601235 -0.558686 -0.66029 -0.60619 -0.66029 -0.558686 -0.919436 -0.843615 -0.825692 -0.767996 -0.757709 -0.843615 -0.718242 -0.825692 -0.757709 -0.843615 -0.757709 -0.825692 -0.601235 -0.66029 -0.689576 -0.718242 -0.757709 -0.66029 -0.767996 -0.689576 -0.757709 -0.66029 -0.757709 -0.689576 -0.155254 -0.242566 -0.247973 -0.343779 -0.344719 -0.242566 -0.337648 -0.247973 -0.344719 -0.242566 -0.344719 -0.247973 -0.597693 -0.583754 -0.461375 -0.560749 -0.456232 -0.583754 -0.343779 -0.461375 -0.456232 -0.583754 -0.456232 -0.461375 -0.497341 -0.422101 -0.531531 -0.337648 -0.442414 -0.422101 -0.560749 -0.531531 -0.442414 -0.422101 -0.442414 -0.531531 -0.343779 -0.456232 -0.344719 -0.560749 -0.442414 -0.456232 -0.337648 -0.344719 -0.442414 -0.456232 -0.442414 -0.344719 -0.919436 -0.825692 -0.892982 -0.718242 -0.774512 -0.825692 -0.827362 -0.892982 -0.774512 -0.825692 -0.774512 -0.892982 -0.497341 -0.531531 -0.60619 -0.560749 -0.650821 -0.531531 -0.718242 -0.60619 -0.650821 -0.531531 -0.650821 -0.60619 -0.597693 -0.726222 -0.583754 -0.827362 -0.691156 -0.726222 -0.560749 -0.583754 -0.691156 -0.726222 -0.691156 -0.583754 -0.718242 -0.650821 -0.774512 -0.560749 -0.691156 -0.650821 -0.827362 -0.774512 -0.691156 -0.650821 -0.691156 -0.774512 -1.2451 -1.2129 -1.12118 -1.12959 -1.04545 -1.2129 -0.968242 -1.12118 -1.04545 -1.2129 -1.04545 -1.12118 -0.764112 -0.749768 -0.979205 -0.722766 -0.921239 -0.749768 -1.12959 -0.979205 -0.921239 -0.749768 -0.921239 -0.979205 -0.649092 -0.805369 -0.687993 -0.968242 -0.86325 -0.805369 -0.722766 -0.687993 -0.86325 -0.805369 -0.86325 -0.687993 -1.12959 -0.921239 -1.04545 -0.722766 -0.86325 -0.921239 -0.968242 -1.04545 -0.86325 -0.921239 -0.86325 -1.04545 0.236899 0.111571 0.0128162 0.0121993 -0.100029 0.111571 -0.240536 0.0128162 -0.100029 0.111571 -0.100029 0.0128162 -0.110666 -0.22699 -0.0593078 -0.367748 -0.175987 -0.22699 0.0121993 -0.0593078 -0.175987 -0.22699 -0.175987 -0.0593078 -0.764112 -0.507325 -0.543912 -0.240536 -0.320717 -0.507325 -0.367748 -0.543912 -0.320717 -0.507325 -0.320717 -0.543912 0.0121993 -0.175987 -0.100029 -0.367748 -0.320717 -0.175987 -0.240536 -0.100029 -0.320717 -0.175987 -0.320717 -0.100029 -0.179644 -0.274723 -0.176338 -0.383028 -0.277947 -0.274723 -0.165743 -0.176338 -0.277947 -0.274723 -0.277947 -0.176338 -0.649092 -0.531199 -0.507686 -0.398753 -0.394838 -0.531199 -0.383028 -0.507686 -0.394838 -0.531199 -0.394838 -0.507686 -0.110666 -0.144681 -0.25731 -0.165743 -0.273196 -0.144681 -0.398753 -0.25731 -0.273196 -0.144681 -0.273196 -0.25731 -0.383028 -0.394838 -0.277947 -0.398753 -0.273196 -0.394838 -0.165743 -0.277947 -0.273196 -0.394838 -0.273196 -0.277947 -0.764112 -0.543912 -0.749768 -0.367748 -0.553976 -0.543912 -0.722766 -0.749768 -0.553976 -0.543912 -0.553976 -0.749768 -0.110666 -0.25731 -0.22699 -0.398753 -0.3912 -0.25731 -0.367748 -0.22699 -0.3912 -0.25731 -0.3912 -0.22699 -0.649092 -0.687993 -0.531199 -0.722766 -0.547856 -0.687993 -0.398753 -0.531199 -0.547856 -0.687993 -0.547856 -0.531199 -0.367748 -0.3912 -0.553976 -0.398753 -0.547856 -0.3912 -0.722766 -0.553976 -0.547856 -0.3912 -0.547856 -0.553976 -0.620883 -0.685803 -0.615834 -0.745126 -0.669659 -0.685803 -0.595231 -0.615834 -0.669659 -0.685803 -0.669659 -0.615834 -0.844745 -0.762385 -0.797889 -0.681637 -0.718265 -0.762385 -0.745126 -0.797889 -0.718265 -0.762385 -0.718265 -0.797889 -0.527877 -0.564372 -0.603341 -0.595231 -0.640105 -0.564372 -0.681637 -0.603341 -0.640105 -0.564372 -0.640105 -0.603341 -0.745126 -0.718265 -0.669659 -0.681637 -0.640105 -0.718265 -0.595231 -0.669659 -0.640105 -0.718265 -0.640105 -0.669659 -1.00468 -0.921628 -0.964649 -0.8382 -0.881175 -0.921628 -0.926026 -0.964649 -0.881175 -0.921628 -0.881175 -0.964649 -0.674784 -0.716203 -0.755605 -0.759179 -0.798026 -0.716203 -0.8382 -0.755605 -0.798026 -0.716203 -0.798026 -0.755605 -0.844745 -0.886831 -0.803112 -0.926026 -0.842099 -0.886831 -0.759179 -0.803112 -0.842099 -0.886831 -0.842099 -0.803112 -0.8382 -0.798026 -0.881175 -0.759179 -0.842099 -0.798026 -0.926026 -0.881175 -0.842099 -0.798026 -0.842099 -0.881175 -0.380598 -0.415438 -0.449099 -0.451621 -0.485734 -0.415438 -0.52108 -0.449099 -0.485734 -0.415438 -0.485734 -0.449099 -0.527877 -0.563591 -0.489494 -0.599516 -0.523923 -0.563591 -0.451621 -0.489494 -0.523923 -0.563591 -0.523923 -0.489494 -0.674784 -0.596436 -0.636509 -0.52108 -0.559537 -0.596436 -0.599516 -0.636509 -0.559537 -0.596436 -0.559537 -0.636509 -0.451621 -0.523923 -0.485734 -0.599516 -0.559537 -0.523923 -0.52108 -0.485734 -0.559537 -0.523923 -0.559537 -0.485734 -0.844745 -0.803112 -0.762385 -0.759179 -0.720857 -0.803112 -0.681637 -0.762385 -0.720857 -0.803112 -0.720857 -0.762385 -0.674784 -0.636509 -0.716203 -0.599516 -0.678106 -0.636509 -0.759179 -0.716203 -0.678106 -0.636509 -0.678106 -0.716203 -0.527877 -0.603341 -0.563591 -0.681637 -0.640846 -0.603341 -0.599516 -0.563591 -0.640846 -0.603341 -0.640846 -0.563591 -0.759179 -0.678106 -0.720857 -0.599516 -0.640846 -0.678106 -0.681637 -0.720857 -0.640846 -0.678106 -0.640846 -0.720857 -1.00468 -0.982866 -0.921628 -0.958741 -0.898908 -0.982866 -0.8382 -0.921628 -0.898908 -0.982866 -0.898908 -0.921628 -0.888519 -0.843562 -0.92835 -0.789992 -0.873961 -0.843562 -0.958741 -0.92835 -0.873961 -0.843562 -0.873961 -0.92835 -0.674784 -0.755605 -0.732665 -0.8382 -0.815134 -0.755605 -0.789992 -0.732665 -0.815134 -0.755605 -0.815134 -0.732665 -0.958741 -0.873961 -0.898908 -0.789992 -0.815134 -0.873961 -0.8382 -0.898908 -0.815134 -0.873961 -0.815134 -0.898908 -0.613347 -0.62791 -0.697251 -0.62282 -0.697173 -0.62791 -0.773015 -0.697251 -0.697173 -0.62791 -0.697173 -0.697251 -0.567373 -0.643761 -0.601304 -0.723096 -0.677478 -0.643761 -0.62282 -0.601304 -0.677478 -0.643761 -0.677478 -0.601304 -0.888519 -0.837068 -0.805017 -0.773015 -0.756464 -0.837068 -0.723096 -0.805017 -0.756464 -0.837068 -0.756464 -0.805017 -0.62282 -0.677478 -0.697173 -0.723096 -0.756464 -0.677478 -0.773015 -0.697173 -0.756464 -0.677478 -0.756464 -0.697173 -0.380598 -0.449099 -0.429331 -0.52108 -0.500218 -0.449099 -0.478111 -0.429331 -0.500218 -0.449099 -0.500218 -0.429331 -0.674784 -0.652301 -0.596436 -0.628125 -0.574671 -0.652301 -0.52108 -0.596436 -0.574671 -0.652301 -0.574671 -0.596436 -0.567373 -0.525103 -0.600336 -0.478111 -0.551426 -0.525103 -0.628125 -0.600336 -0.551426 -0.525103 -0.551426 -0.600336 -0.52108 -0.574671 -0.500218 -0.628125 -0.551426 -0.574671 -0.478111 -0.500218 -0.551426 -0.574671 -0.551426 -0.500218 -0.888519 -0.805017 -0.843562 -0.723096 -0.760076 -0.805017 -0.789992 -0.843562 -0.760076 -0.805017 -0.760076 -0.843562 -0.567373 -0.600336 -0.643761 -0.628125 -0.678835 -0.600336 -0.723096 -0.643761 -0.678835 -0.600336 -0.678835 -0.643761 -0.674784 -0.732665 -0.652301 -0.789992 -0.707828 -0.732665 -0.628125 -0.652301 -0.707828 -0.732665 -0.707828 -0.652301 -0.723096 -0.678835 -0.760076 -0.628125 -0.707828 -0.678835 -0.789992 -0.760076 -0.707828 -0.678835 -0.707828 -0.760076 -0.620883 -0.615834 -0.549841 -0.595231 -0.539044 -0.615834 -0.479386 -0.549841 -0.539044 -0.615834 -0.539044 -0.549841 -0.527877 -0.485035 -0.564372 -0.440727 -0.516267 -0.485035 -0.595231 -0.564372 -0.516267 -0.485035 -0.516267 -0.564372 -0.346286 -0.411604 -0.39435 -0.479386 -0.465201 -0.411604 -0.440727 -0.39435 -0.465201 -0.411604 -0.465201 -0.39435 -0.595231 -0.516267 -0.539044 -0.440727 -0.465201 -0.516267 -0.479386 -0.539044 -0.465201 -0.516267 -0.465201 -0.539044 -0.380598 -0.34299 -0.415438 -0.307125 -0.377259 -0.34299 -0.451621 -0.415438 -0.377259 -0.34299 -0.377259 -0.415438 -0.240707 -0.305977 -0.273126 -0.375557 -0.34092 -0.305977 -0.307125 -0.273126 -0.34092 -0.305977 -0.34092 -0.273126 -0.527877 -0.489494 -0.449596 -0.451621 -0.412979 -0.489494 -0.375557 -0.449596 -0.412979 -0.489494 -0.412979 -0.449596 -0.307125 -0.34092 -0.377259 -0.375557 -0.412979 -0.34092 -0.451621 -0.377259 -0.412979 -0.34092 -0.412979 -0.377259 -0.118363 -0.170125 -0.148405 -0.225381 -0.204076 -0.170125 -0.178745 -0.148405 -0.204076 -0.170125 -0.204076 -0.148405 -0.346286 -0.327124 -0.284174 -0.30141 -0.263629 -0.327124 -0.225381 -0.284174 -0.263629 -0.327124 -0.263629 -0.284174 -0.240707 -0.209385 -0.271847 -0.178745 -0.238011 -0.209385 -0.30141 -0.271847 -0.238011 -0.209385 -0.238011 -0.271847 -0.225381 -0.263629 -0.204076 -0.30141 -0.238011 -0.263629 -0.178745 -0.204076 -0.238011 -0.263629 -0.238011 -0.204076 -0.527877 -0.449596 -0.485035 -0.375557 -0.409706 -0.449596 -0.440727 -0.485035 -0.409706 -0.449596 -0.409706 -0.485035 -0.240707 -0.271847 -0.305977 -0.30141 -0.33857 -0.271847 -0.375557 -0.305977 -0.33857 -0.271847 -0.33857 -0.305977 -0.346286 -0.39435 -0.327124 -0.440727 -0.369046 -0.39435 -0.30141 -0.327124 -0.369046 -0.39435 -0.369046 -0.327124 -0.375557 -0.33857 -0.409706 -0.30141 -0.369046 -0.33857 -0.440727 -0.409706 -0.369046 -0.33857 -0.369046 -0.409706 </DataArray>