<?xml version="1.0" encoding="UTF-8"?>
<VTKFile type="UnstructuredGrid" version="0.1" byte_order="LittleEndian" compressor="vtkZLibDataCompressor">
    <UnstructuredGrid>
        <Piece NumberOfPoints="1920" NumberOfCells="640">
            <Points>
                <DataArray type="Float64" Name="Array" NumberOfComponents="3" format="ascii" RangeMin="0" RangeMax="18.5673877056668">14.6997 16 0 14.3539 16 0 14.5317 15.7351 0 14.0082 16 0 14.186 15.7351 0 14.3539 16 0 14.3637 15.4701 0 14.5317 15.7351 0 14.186 15.7351 0 14.3539 16 0 14.186 15.7351 0 14.5317 15.7351 0 13.3166 16 0 13.4944 15.7351 0 13.6624 16 0 13.6722 15.4701 0 13.8402 15.7351 0 13.4944 15.7351 0 14.0082 16 0 13.6624 16 0 13.8402 15.7351 0 13.4944 15.7351 0 13.8402 15.7351 0 13.6624 16 0 14.0278 14.9402 0 14.1958 15.2052 0 13.85 15.2052 0 14.3637 15.4701 0 14.018 15.4701 0 14.1958 15.2052 0 13.6722 15.4701 0 13.85 15.2052 0 14.018 15.4701 0 14.1958 15.2052 0 14.018 15.4701 0 13.85 15.2052 0 14.0082 16 0 13.8402 15.7351 0 14.186 15.7351 0 13.6722 15.4701 0 14.018 15.4701 0 13.8402 15.7351 0 14.3637 15.4701 0 14.186 15.7351 0 14.018 15.4701 0 13.8402 15.7351 0 14.018 15.4701 0 14.186 15.7351 0 11.9336 16 0 12.1113 15.7351 0 12.2793 16 0 12.2891 15.4701 0 12.4571 15.7351 0 12.1113 15.7351 0 12.6251 16 0 12.2793 16 0 12.4571 15.7351 0 12.1113 15.7351 0 12.4571 15.7351 0 12.2793 16 0 12.6447 14.9402 0 12.8127 15.2052 0 12.4669 15.2052 0 12.9807 15.4701 0 12.6349 15.4701 0 12.8127 15.2052 0 12.2891 15.4701 0 12.4669 15.2052 0 12.6349 15.4701 0 12.8127 15.2052 0 12.6349 15.4701 0 12.4669 15.2052 0 13.3166 16 0 12.9709 16 0 13.1486 15.7351 0 12.6251 16 0 12.8029 15.7351 0 12.9709 16 0 12.9807 15.4701 0 13.1486 15.7351 0 12.8029 15.7351 0 12.9709 16 0 12.8029 15.7351 0 13.1486 15.7351 0 12.2891 15.4701 0 12.6349 15.4701 0 12.4571 15.7351 0 12.9807 15.4701 0 12.8029 15.7351 0 12.6349 15.4701 0 12.6251 16 0 12.4571 15.7351 0 12.8029 15.7351 0 12.6349 15.4701 0 12.8029 15.7351 0 12.4571 15.7351 0 13.3558 13.8805 0 13.5238 14.1454 0 13.178 14.1454 0 13.6918 14.4103 0 13.346 14.4103 0 13.5238 14.1454 0 13.0003 14.4103 0 13.178 14.1454 0 13.346 14.4103 0 13.5238 14.1454 0 13.346 14.4103 0 13.178 14.1454 0 14.0278 14.9402 0 13.682 14.9402 0 13.8598 14.6753 0 13.3362 14.9402 0 13.514 14.6753 0 13.682 14.9402 0 13.6918 14.4103 0 13.8598 14.6753 0 13.514 14.6753 0 13.682 14.9402 0 13.514 14.6753 0 13.8598 14.6753 0 12.6447 14.9402 0 12.8225 14.6753 0 12.9905 14.9402 0 13.0003 14.4103 0 13.1682 14.6753 0 12.8225 14.6753 0 13.3362 14.9402 0 12.9905 14.9402 0 13.1682 14.6753 0 12.8225 14.6753 0 13.1682 14.6753 0 12.9905 14.9402 0 13.6918 14.4103 0 13.514 14.6753 0 13.346 14.4103 0 13.3362 14.9402 0 13.1682 14.6753 0 13.514 14.6753 0 13.0003 14.4103 0 13.346 14.4103 0 13.1682 14.6753 0 13.514 14.6753 0 13.1682 14.6753 0 13.346 14.4103 0 13.3166 16 0 13.1486 15.7351 0 13.4944 15.7351 0 12.9807 15.4701 0 13.3264 15.4701 0 13.1486 15.7351 0 13.6722 15.4701 0 13.4944 15.7351 0 13.3264 15.4701 0 13.1486 15.7351 0 13.3264 15.4701 0 13.4944 15.7351 0 12.6447 14.9402 0 12.9905 14.9402 0 12.8127 15.2052 0 13.3362 14.9402 0 13.1584 15.2052 0 12.9905 14.9402 0 12.9807 15.4701 0 12.8127 15.2052 0 13.1584 15.2052 0 12.9905 14.9402 0 13.1584 15.2052 0 12.8127 15.2052 0 14.0278 14.9402 0 13.85 15.2052 0 13.682 14.9402 0 13.6722 15.4701 0 13.5042 15.2052 0 13.85 15.2052 0 13.3362 14.9402 0 13.682 14.9402 0 13.5042 15.2052 0 13.85 15.2052 0 13.5042 15.2052 0 13.682 14.9402 0 12.9807 15.4701 0 13.1584 15.2052 0 13.3264 15.4701 0 13.3362 14.9402 0 13.5042 15.2052 0 13.1584 15.2052 0 13.6722 15.4701 0 13.3264 15.4701 0 13.5042 15.2052 0 13.1584 15.2052 0 13.5042 15.2052 0 13.3264 15.4701 0 18.0239 16 0 17.6084 16 0 17.8166 15.6402 0 17.1929 16 0 17.4011 15.6402 0 17.6084 16 0 17.6093 15.2804 0 17.8166 15.6402 0 17.4011 15.6402 0 17.6084 16 0 17.4011 15.6402 0 17.8166 15.6402 0 16.3618 16 0 16.57 15.6402 0 16.7773 16 0 16.7783 15.2804 0 16.9856 15.6402 0 16.57 15.6402 0 17.1929 16 0 16.7773 16 0 16.9856 15.6402 0 16.57 15.6402 0 16.9856 15.6402 0 16.7773 16 0 17.1948 14.5608 0 17.402 14.9206 0 16.9865 14.9206 0 17.6093 15.2804 0 17.1938 15.2804 0 17.402 14.9206 0 16.7783 15.2804 0 16.9865 14.9206 0 17.1938 15.2804 0 17.402 14.9206 0 17.1938 15.2804 0 16.9865 14.9206 0 17.1929 16 0 16.9856 15.6402 0 17.4011 15.6402 0 16.7783 15.2804 0 17.1938 15.2804 0 16.9856 15.6402 0 17.6093 15.2804 0 17.4011 15.6402 0 17.1938 15.2804 0 16.9856 15.6402 0 17.1938 15.2804 0 17.4011 15.6402 0 14.6997 16 0 14.908 15.6402 0 15.1152 16 0 15.1162 15.2804 0 15.3235 15.6402 0 14.908 15.6402 0 15.5308 16 0 15.1152 16 0 15.3235 15.6402 0 14.908 15.6402 0 15.3235 15.6402 0 15.1152 16 0 15.5327 14.5608 0 15.7399 14.9206 0 15.3244 14.9206 0 15.9472 15.2804 0 15.5317 15.2804 0 15.7399 14.9206 0 15.1162 15.2804 0 15.3244 14.9206 0 15.5317 15.2804 0 15.7399 14.9206 0 15.5317 15.2804 0 15.3244 14.9206 0 16.3618 16 0 15.9463 16 0 16.1545 15.6402 0 15.5308 16 0 15.739 15.6402 0 15.9463 16 0 15.9472 15.2804 0 16.1545 15.6402 0 15.739 15.6402 0 15.9463 16 0 15.739 15.6402 0 16.1545 15.6402 0 15.1162 15.2804 0 15.5317 15.2804 0 15.3235 15.6402 0 15.9472 15.2804 0 15.739 15.6402 0 15.5317 15.2804 0 15.5308 16 0 15.3235 15.6402 0 15.739 15.6402 0 15.5317 15.2804 0 15.739 15.6402 0 15.3235 15.6402 0 16.3656 13.1217 0 16.5729 13.4815 0 16.1574 13.4815 0 16.7802 13.8413 0 16.3646 13.8413 0 16.5729 13.4815 0 15.9491 13.8413 0 16.1574 13.4815 0 16.3646 13.8413 0 16.5729 13.4815 0 16.3646 13.8413 0 16.1574 13.4815 0 17.1948 14.5608 0 16.7792 14.5608 0 16.9875 14.2011 0 16.3637 14.5608 0 16.5719 14.2011 0 16.7792 14.5608 0 16.7802 13.8413 0 16.9875 14.2011 0 16.5719 14.2011 0 16.7792 14.5608 0 16.5719 14.2011 0 16.9875 14.2011 0 15.5327 14.5608 0 15.7409 14.2011 0 15.9482 14.5608 0 15.9491 13.8413 0 16.1564 14.2011 0 15.7409 14.2011 0 16.3637 14.5608 0 15.9482 14.5608 0 16.1564 14.2011 0 15.7409 14.2011 0 16.1564 14.2011 0 15.9482 14.5608 0 16.7802 13.8413 0 16.5719 14.2011 0 16.3646 13.8413 0 16.3637 14.5608 0 16.1564 14.2011 0 16.5719 14.2011 0 15.9491 13.8413 0 16.3646 13.8413 0 16.1564 14.2011 0 16.5719 14.2011 0 16.1564 14.2011 0 16.3646 13.8413 0 16.3618 16 0 16.1545 15.6402 0 16.57 15.6402 0 15.9472 15.2804 0 16.3628 15.2804 0 16.1545 15.6402 0 16.7783 15.2804 0 16.57 15.6402 0 16.3628 15.2804 0 16.1545 15.6402 0 16.3628 15.2804 0 16.57 15.6402 0 15.5327 14.5608 0 15.9482 14.5608 0 15.7399 14.9206 0 16.3637 14.5608 0 16.1555 14.9206 0 15.9482 14.5608 0 15.9472 15.2804 0 15.7399 14.9206 0 16.1555 14.9206 0 15.9482 14.5608 0 16.1555 14.9206 0 15.7399 14.9206 0 17.1948 14.5608 0 16.9865 14.9206 0 16.7792 14.5608 0 16.7783 15.2804 0 16.571 14.9206 0 16.9865 14.9206 0 16.3637 14.5608 0 16.7792 14.5608 0 16.571 14.9206 0 16.9865 14.9206 0 16.571 14.9206 0 16.7792 14.5608 0 15.9472 15.2804 0 16.1555 14.9206 0 16.3628 15.2804 0 16.3637 14.5608 0 16.571 14.9206 0 16.1555 14.9206 0 16.7783 15.2804 0 16.3628 15.2804 0 16.571 14.9206 0 16.1555 14.9206 0 16.571 14.9206 0 16.3628 15.2804 0 14.6997 16 0 14.5317 15.7351 0 14.908 15.6402 0 14.3637 15.4701 0 14.74 15.3753 0 14.5317 15.7351 0 15.1162 15.2804 0 14.908 15.6402 0 14.74 15.3753 0 14.5317 15.7351 0 14.74 15.3753 0 14.908 15.6402 0 14.0278 14.9402 0 14.404 14.8454 0 14.1958 15.2052 0 14.7802 14.7505 0 14.572 15.1103 0 14.404 14.8454 0 14.3637 15.4701 0 14.1958 15.2052 0 14.572 15.1103 0 14.404 14.8454 0 14.572 15.1103 0 14.1958 15.2052 0 15.5327 14.5608 0 15.3244 14.9206 0 15.1564 14.6557 0 15.1162 15.2804 0 14.9482 15.0155 0 15.3244 14.9206 0 14.7802 14.7505 0 15.1564 14.6557 0 14.9482 15.0155 0 15.3244 14.9206 0 14.9482 15.0155 0 15.1564 14.6557 0 14.3637 15.4701 0 14.572 15.1103 0 14.74 15.3753 0 14.7802 14.7505 0 14.9482 15.0155 0 14.572 15.1103 0 15.1162 15.2804 0 14.74 15.3753 0 14.9482 15.0155 0 14.572 15.1103 0 14.9482 15.0155 0 14.74 15.3753 0 13.3558 13.8805 0 13.732 13.7856 0 13.5238 14.1454 0 14.1083 13.6908 0 13.9 14.0506 0 13.732 13.7856 0 13.6918 14.4103 0 13.5238 14.1454 0 13.9 14.0506 0 13.732 13.7856 0 13.9 14.0506 0 13.5238 14.1454 0 14.8607 13.5011 0 14.6525 13.8609 0 14.4845 13.5959 0 14.4442 14.2207 0 14.2762 13.9557 0 14.6525 13.8609 0 14.1083 13.6908 0 14.4845 13.5959 0 14.2762 13.9557 0 14.6525 13.8609 0 14.2762 13.9557 0 14.4845 13.5959 0 14.0278 14.9402 0 13.8598 14.6753 0 14.236 14.5804 0 13.6918 14.4103 0 14.068 14.3155 0 13.8598 14.6753 0 14.4442 14.2207 0 14.236 14.5804 0 14.068 14.3155 0 13.8598 14.6753 0 14.068 14.3155 0 14.236 14.5804 0 14.1083 13.6908 0 14.2762 13.9557 0 13.9 14.0506 0 14.4442 14.2207 0 14.068 14.3155 0 14.2762 13.9557 0 13.6918 14.4103 0 13.9 14.0506 0 14.068 14.3155 0 14.2762 13.9557 0 14.068 14.3155 0 13.9 14.0506 0 16.3656 13.1217 0 16.1574 13.4815 0 15.9894 13.2165 0 15.9491 13.8413 0 15.7811 13.5763 0 16.1574 13.4815 0 15.6131 13.3114 0 15.9894 13.2165 0 15.7811 13.5763 0 16.1574 13.4815 0 15.7811 13.5763 0 15.9894 13.2165 0 15.5327 14.5608 0 15.3647 14.2959 0 15.7409 14.2011 0 15.1967 14.031 0 15.5729 13.9361 0 15.3647 14.2959 0 15.9491 13.8413 0 15.7409 14.2011 0 15.5729 13.9361 0 15.3647 14.2959 0 15.5729 13.9361 0 15.7409 14.2011 0 14.8607 13.5011 0 15.2369 13.4062 0 15.0287 13.766 0 15.6131 13.3114 0 15.4049 13.6712 0 15.2369 13.4062 0 15.1967 14.031 0 15.0287 13.766 0 15.4049 13.6712 0 15.2369 13.4062 0 15.4049 13.6712 0 15.0287 13.766 0 15.9491 13.8413 0 15.5729 13.9361 0 15.7811 13.5763 0 15.1967 14.031 0 15.4049 13.6712 0 15.5729 13.9361 0 15.6131 13.3114 0 15.7811 13.5763 0 15.4049 13.6712 0 15.5729 13.9361 0 15.4049 13.6712 0 15.7811 13.5763 0 14.0278 14.9402 0 14.236 14.5804 0 14.404 14.8454 0 14.4442 14.2207 0 14.6122 14.4856 0 14.236 14.5804 0 14.7802 14.7505 0 14.404 14.8454 0 14.6122 14.4856 0 14.236 14.5804 0 14.6122 14.4856 0 14.404 14.8454 0 14.8607 13.5011 0 15.0287 13.766 0 14.6525 13.8609 0 15.1967 14.031 0 14.8205 14.1258 0 15.0287 13.766 0 14.4442 14.2207 0 14.6525 13.8609 0 14.8205 14.1258 0 15.0287 13.766 0 14.8205 14.1258 0 14.6525 13.8609 0 15.5327 14.5608 0 15.1564 14.6557 0 15.3647 14.2959 0 14.780
[...]
            <PointData>
                <DataArray Name="p" type="Float64" format="ascii">0.79258 0.831656 0.810845 0.870333 0.849629 0.831656 0.828962 0.810845 0.849629 0.831656 0.849629 0.810845 0.945508 0.92551 0.908352 0.905692 0.887929 0.92551 0.870333 0.908352 0.887929 0.92551 0.887929 0.908352 0.865128 0.846939 0.885711 0.828962 0.867609 0.846939 0.905692 0.885711 0.867609 0.846939 0.867609 0.885711 0.870333 0.887929 0.849629 0.905692 0.867609 0.887929 0.828962 0.849629 0.867609 0.887929 0.867609 0.849629 1.08288 1.06555 1.05039 1.04864 1.03233 1.06555 1.01662 1.05039 1.03233 1.06555 1.03233 1.05039 1.01662 0.997332 1.03229 0.97933 1.01462 0.997332 1.04864 1.03229 1.01462 0.997332 1.01462 1.03229 0.945508 0.981645 0.962197 1.01662 0.997827 0.981645 0.97933 0.962197 0.997827 0.981645 0.997827 0.962197 1.04864 1.01462 1.03233 0.97933 0.997827 1.01462 1.01662 1.03233 0.997827 1.01462 0.997827 1.03233 0.955135 0.928652 0.971436 0.905111 0.946636 0.928652 0.986674 0.971436 0.946636 0.928652 0.946636 0.971436 0.865128 0.904426 0.884273 0.94288 0.924395 0.904426 0.905111 0.884273 0.924395 0.904426 0.924395 0.884273 1.01662 1.00154 0.980432 0.986674 0.963686 1.00154 0.94288 0.980432 0.963686 1.00154 0.963686 0.980432 0.905111 0.924395 0.946636 0.94288 0.963686 0.924395 0.986674 0.946636 0.963686 0.924395 0.963686 0.946636 0.945508 0.962197 0.92551 0.97933 0.943001 0.962197 0.905692 0.92551 0.943001 0.962197 0.943001 0.92551 1.01662 0.980432 0.997332 0.94288 0.961073 0.980432 0.97933 0.997332 0.961073 0.980432 0.961073 0.997332 0.865128 0.885711 0.904426 0.905692 0.923854 0.885711 0.94288 0.904426 0.923854 0.885711 0.923854 0.904426 0.97933 0.961073 0.943001 0.94288 0.923854 0.961073 0.905692 0.943001 0.923854 0.961073 0.923854 0.943001 0.450361 0.485872 0.469749 0.524059 0.506247 0.485872 0.48642 0.469749 0.506247 0.485872 0.506247 0.469749 0.60774 0.586749 0.564803 0.563956 0.545316 0.586749 0.524059 0.564803 0.545316 0.586749 0.545316 0.564803 0.504887 0.498538 0.537173 0.48642 0.523904 0.498538 0.563956 0.537173 0.523904 0.498538 0.523904 0.537173 0.524059 0.545316 0.506247 0.563956 0.523904 0.545316 0.48642 0.506247 0.523904 0.545316 0.523904 0.506247 0.79258 0.768126 0.74539 0.742935 0.721386 0.768126 0.698525 0.74539 0.721386 0.768126 0.721386 0.74539 0.682212 0.667796 0.714919 0.650543 0.696257 0.667796 0.742935 0.714919 0.696257 0.667796 0.696257 0.714919 0.60774 0.652476 0.630195 0.698525 0.675227 0.652476 0.650543 0.630195 0.675227 0.652476 0.675227 0.630195 0.742935 0.696257 0.721386 0.650543 0.675227 0.696257 0.698525 0.721386 0.675227 0.696257 0.675227 0.721386 0.481561 0.492292 0.54375 0.500685 0.546723 0.492292 0.59739 0.54375 0.546723 0.492292 0.546723 0.54375 0.504887 0.545046 0.505289 0.588293 0.547893 0.545046 0.500685 0.505289 0.547893 0.545046 0.547893 0.505289 0.682212 0.643396 0.634114 0.59739 0.593972 0.643396 0.588293 0.634114 0.593972 0.643396 0.593972 0.634114 0.500685 0.547893 0.546723 0.588293 0.593972 0.547893 0.59739 0.546723 0.593972 0.547893 0.593972 0.546723 0.60774 0.630195 0.586749 0.650543 0.606288 0.630195 0.563956 0.586749 0.606288 0.630195 0.606288 0.586749 0.682212 0.634114 0.667796 0.588293 0.622173 0.634114 0.650543 0.667796 0.622173 0.634114 0.622173 0.667796 0.504887 0.537173 0.545046 0.563956 0.578468 0.537173 0.588293 0.545046 0.578468 0.537173 0.578468 0.545046 0.650543 0.622173 0.606288 0.588293 0.578468 0.622173 0.563956 0.606288 0.578468 0.622173 0.578468 0.606288 0.79258 0.810845 0.768126 0.828962 0.786125 0.810845 0.742935 0.768126 0.786125 0.810845 0.786125 0.768126 0.865128 0.821126 0.846939 0.775697 0.803667 0.821126 0.828962 0.846939 0.803667 0.821126 0.803667 0.846939 0.682212 0.714919 0.729292 0.742935 0.759546 0.714919 0.775697 0.729292 0.759546 0.714919 0.759546 0.729292 0.828962 0.803667 0.786125 0.775697 0.759546 0.803667 0.742935 0.786125 0.759546 0.803667 0.759546 0.786125 0.955135 0.906094 0.928652 0.852342 0.880811 0.906094 0.905111 0.928652 0.880811 0.906094 0.880811 0.928652 0.734136 0.77545 0.795023 0.809753 0.82965 0.77545 0.852342 0.795023 0.82965 0.77545 0.82965 0.795023 0.865128 0.884273 0.839196 0.905111 0.858824 0.884273 0.809753 0.839196 0.858824 0.884273 0.858824 0.839196 0.852342 0.82965 0.880811 0.809753 0.858824 0.82965 0.905111 0.880811 0.858824 0.82965 0.858824 0.880811 0.481561 0.54375 0.543007 0.59739 0.601735 0.54375 0.606716 0.543007 0.601735 0.54375 0.601735 0.543007 0.682212 0.693725 0.643396 0.70551 0.651506 0.693725 0.59739 0.643396 0.651506 0.693725 0.651506 0.643396 0.734136 0.671001 0.718792 0.606716 0.660507 0.671001 0.70551 0.718792 0.660507 0.671001 0.660507 0.718792 0.59739 0.651506 0.601735 0.70551 0.660507 0.651506 0.606716 0.601735 0.660507 0.651506 0.660507 0.601735 0.865128 0.839196 0.821126 0.809753 0.792145 0.839196 0.775697 0.821126 0.792145 0.839196 0.792145 0.821126 0.734136 0.718792 0.77545 0.70551 0.758555 0.718792 0.809753 0.77545 0.758555 0.718792 0.758555 0.77545 0.682212 0.729292 0.693725 0.775697 0.743527 0.729292 0.70551 0.693725 0.743527 0.729292 0.743527 0.693725 0.809753 0.758555 0.792145 0.70551 0.743527 0.758555 0.775697 0.792145 0.743527 0.758555 0.743527 0.792145 1.08288 1.11955 1.09593 1.15447 1.13224 1.11955 1.11074 1.09593 1.13224 1.11955 1.13224 1.09593 1.21936 1.19983 1.18772 1.18106 1.16686 1.19983 1.15447 1.18772 1.16686 1.19983 1.16686 1.18772 1.15085 1.12863 1.16445 1.11074 1.14677 1.12863 1.18106 1.16445 1.14677 1.12863 1.14677 1.16445 1.15447 1.16686 1.13224 1.18106 1.14677 1.16686 1.11074 1.13224 1.14677 1.16686 1.14677 1.13224 1.33329 1.31776 1.30607 1.30358 1.29045 1.31776 1.27844 1.30607 1.29045 1.31776 1.29045 1.30607 1.28337 1.26249 1.29159 1.24504 1.27526 1.26249 1.30358 1.29159 1.27526 1.26249 1.27526 1.29159 1.21936 1.24963 1.23136 1.27844 1.26138 1.24963 1.24504 1.23136 1.26138 1.24963 1.26138 1.23136 1.30358 1.27526 1.29045 1.24504 1.26138 1.27526 1.27844 1.29045 1.26138 1.27526 1.26138 1.29045 1.28103 1.2445 1.27876 1.20967 1.24504 1.2445 1.27791 1.27876 1.24504 1.2445 1.24504 1.27876 1.15085 1.18677 1.17812 1.2206 1.21377 1.18677 1.20967 1.17812 1.21377 1.18677 1.21377 1.17812 1.28337 1.27916 1.25322 1.27791 1.24759 1.27916 1.2206 1.25322 1.24759 1.27916 1.24759 1.25322 1.20967 1.21377 1.24504 1.2206 1.24759 1.21377 1.27791 1.24504 1.24759 1.21377 1.24759 1.24504 1.21936 1.23136 1.19983 1.24504 1.21388 1.23136 1.18106 1.19983 1.21388 1.23136 1.21388 1.19983 1.28337 1.25322 1.26249 1.2206 1.23104 1.25322 1.24504 1.26249 1.23104 1.25322 1.23104 1.26249 1.15085 1.16445 1.18677 1.18106 1.19869 1.16445 1.2206 1.18677 1.19869 1.16445 1.19869 1.18677 1.24504 1.23104 1.21388 1.2206 1.19869 1.23104 1.18106 1.21388 1.19869 1.23104 1.19869 1.21388 0.0252979 -0.0749606 0.121432 -0.136954 0.0314058 -0.0749606 0.198333 0.121432 0.0314058 -0.0749606 0.0314058 0.121432 -0.189873 -0.0681463 -0.173197 0.0592764 -0.0293619 -0.0681463 -0.136954 -0.173197 -0.0293619 -0.0681463 -0.0293619 -0.173197 0.312433 0.260594 0.187267 0.198333 0.116931 0.260594 0.0592764 0.187267 0.116931 0.260594 0.116931 0.187267 -0.136954 -0.0293619 0.0314058 0.0592764 0.116931 -0.0293619 0.198333 0.0314058 0.116931 -0.0293619 0.116931 0.0314058 -0.155254 -0.0925833 -0.173711 -0.0231128 -0.0998457 -0.0925833 -0.186797 -0.173711 -0.0998457 -0.0925833 -0.0998457 -0.173711 0.131047 0.0677086 0.0520121 -0.00502871 -0.018756 0.0677086 -0.0231128 0.0520121 -0.018756 0.0677086 -0.018756 0.0520121 -0.189873 -0.193207 -0.0900718 -0.186797 -0.0995601 -0.193207 -0.00502871 -0.0900718 -0.0995601 -0.193207 -0.0995601 -0.0900718 -0.0231128 -0.018756 -0.0998457 -0.00502871 -0.0995601 -0.018756 -0.186797 -0.0998457 -0.0995601 -0.018756 -0.0995601 -0.0998457 0.454356 0.426001 0.376244 0.393635 0.338424 0.426001 0.294465 0.376244 0.338424 0.426001 0.338424 0.376244 0.312433 0.245984 0.356161 0.195289 0.295763 0.245984 0.393635 0.356161 0.295763 0.245984 0.295763 0.356161 0.131047 0.212722 0.15739 0.294465 0.248431 0.212722 0.195289 0.15739 0.248431 0.212722 0.248431 0.15739 0.393635 0.295763 0.338424 0.195289 0.248431 0.295763 0.294465 0.338424 0.248431 0.295763 0.248431 0.338424 -0.189873 -0.0900718 -0.0681463 -0.00502871 0.0197757 -0.0900718 0.0592764 -0.0681463 0.0197757 -0.0900718 0.0197757 -0.0681463 0.131047 0.15739 0.0677086 0.195289 0.094062 0.15739 -0.00502871 0.0677086 0.094062 0.15739 0.094062 0.0677086 0.312433 0.187267 0.245984 0.0592764 0.13301 0.187267 0.195289 0.245984 0.13301 0.187267 0.13301 0.245984 -0.00502871 0.094062 0.0197757 0.195289 0.13301 0.094062 0.0592764 0.0197757 0.13301 0.094062 0.13301 0.0197757 0.481561 0.543007 0.506835 0.606716 0.573384 0.543007 0.536951 0.506835 0.573384 0.543007 0.573384 0.506835 0.734136 0.708629 0.671001 0.680317 0.64134 0.708629 0.606716 0.671001 0.64134 0.708629 0.64134 0.671001 0.61297 0.572253 0.648605 0.536951 0.608633 0.572253 0.680317 0.648605 0.608633 0.572253 0.608633 0.648605 0.606716 0.64134 0.573384 0.680317 0.608633 0.64134 0.536951 0.573384 0.608633 0.64134 0.608633 0.573384 0.955135 0.945431 0.906094 0.934817 0.893066 0.945431 0.852342 0.906094 0.893066 0.945431 0.893066 0.906094 0.909439 0.862227 0.92288 0.816492 0.878543 0.862227 0.934817 0.92288 0.878543 0.862227 0.878543 0.92288 0.734136 0.795023 0.773868 0.852342 0.835398 0.795023 0.816492 0.773868 0.835398 0.795023 0.835398 0.773868 0.934817 0.878543 0.893066 0.816492 0.835398 0.878543 0.852342 0.893066 0.835398 0.878543 0.835398 0.893066 0.832734 0.770483 0.856319 0.712038 0.798547 0.770483 0.876553 0.856319 0.798547 0.770483 0.798547 0.856319 0.61297 0.693801 0.659838 0.771022 0.743571 0.693801 0.712038 0.659838 0.743571 0.693801 0.743571 0.659838 0.909439 0.894103 0.843733 0.876553 0.822658 0.894103 0.771022 0.843733 0.822658 0.894103 0.822658 0.843733 0.712038 0.743571 0.798547 0.771022 0.822658 0.743571 0.876553 0.798547 0.822658 0.743571 0.822658 0.798547 0.734136 0.773868 0.708629 0.816492 0.75028 0.773868 0.680317 0.708629 0.75028 0.773868 0.75028 0.708629 0.909439 0.843733 0.862227 0.771022 0.795164 0.843733 0.816492 0.862227 0.795164 0.843733 0.795164 0.862227 0.61297 0.648605 0.693801 0.680317 0.723732 0.648605 0.771022 0.693801 0.723732 0.648605 0.723732 0.693801 0.816492 0.795164 0.75028 0.771022 0.723732 0.795164 0.680317 0.75028 0.723732 0.795164 0.723732 0.75028 1.0125 0.953835 0.925516 0.882171 0.859146 0.953835 0.841374 0.925516 0.859146 0.953835 0.859146 0.925516 0.688428 0.68439 0.794736 0.683327 0.779282 0.68439 0.882171 0.794736 0.779282 0.68439 0.779282 0.794736 0.686083 0.760883 0.684115 0.841374 0.768497 0.760883 0.683327 0.684115 0.768497 0.760883 0.768497 0.684115 0.882171 0.779282 0.859146 0.683327 0.768497 0.779282 0.841374 0.859146 0.768497 0.779282 0.768497 0.859146 0.0252979 0.121432 0.228836 0.198333 0.290519 0.121432 0.407317 0.228836 0.290519 0.121432 0.290519 0.228836 0.312433 0.384105 0.260594 0.470641 0.341724 0.384105 0.198333 0.260594 0.341724 0.384105 0.341724 0.260594 0.688428 0.560168 0.57221 0.407317 0.441156 0.560168 0.470641 0.57221 0.441156 0.560168 0.441156 0.57221 0.198333 0.341724 0.290519 0.470641 0.441156 0.341724 0.407317 0.290519 0.441156 0.341724 0.441156 0.290519 0.454356 0.501869 0.426001 0.55615 0.478054 0.501869 0.393635 0.426001 0.478054 0.501869 0.478054 0.426001 0.686083 0.607105 0.617601 0.518494 0.538365 0.607105 0.55615 0.617601 0.538365 0.607105 0.538365 0.617601 0.312433 0.356161 0.420135 0.393635 0.451101 0.356161 0.518494 0.420135 0.451101 0.356161 0.451101 0.420135 0.55615 0.538365 0.478054 0.518494 0.451101 0.538365 0.393635 0.478054 0.451101 0.538365 0.451101 0.478054 0.688428 0.57221 0.68439 0.470641 0.584389 0.57221 0.683327 0.68439 0.584389 0.57221 0.584389 0.68439 0.312433 0.420135 0.384105 0.518494 0.496087 0.420135 0.470641 0.384105 0.496087 0.420135 0.496087 0.384105 0.686083 0.684115 0.607105 0.683327 0.595989 0.684115 0.518494 0.607105 0.595989 0.684115 0.595989 0.607105 0.470641 0.496087 0.584389 0.518494 0.595989 0.496087 0.683327 0.584389 0.595989 0.496087 0.595989 0.584389 -0.155254 -0.247973 -0.153626 -0.337648 -0.231019 -0.247973 -0.141837 -0.153626 -0.231019 -0.247973 -0.231019 -0.153626 -0.497341 -0.37406 -0.422101 -0.269011 -0.305628 -0.37406 -0.337648 -0.422101 -0.305628 -0.37406 -0.305628 -0.422101 -0.102812 -0.12493 -0.178928 -0.141837 -0.207635 -0.12493 -0.269011 -0.178928 -0.207635 -0.12493 -0.207635 -0.178928 -0.337648 -0.305628 -0.231019 -0.269011 -0.207635 -0.305628 -0.141837 -0.231019 -0.207635 -0.305628 -0.207635 -0.231019 -0.620883 -0.526333 -0.621951 -0.429374 -0.512764 -0.526333 -0.601235 -0.621951 -0.512764 -0.526333 -0.512764 -0.621951 -0.250604 -0.309435 -0.336014 -0.371018 -0.406881 -0.309435 -0.429374 -0.336014 -0.406881 -0.309435 -0.406881 -0.336014 -0.497341 -0.558686 -0.43377 -0.601235 -0.481173 -0.558686 -0.371018 -0.43377 -0.481173 -0.558686 -0.481173 -0.43377 -0.429374 -0.406881 -0.512764 -0.371018 -0.481173 -0.406881 -0.601235 -0.512764 -0.481173 -0.406881 -0.481173 -0.512764 0.00131075 -0.025314 -0.049138 -0.0520929 -0.0818107 -0.025314 -0.10775 -0.049138 -0.0818107 -0.025314 -0.0818107 -0.049138 -0.102812 -0.147772 -0.0783378 -0.188481 -0.114888 -0.147772 -0.0520929 -0.0783378 -0.114888 -0.147772 -0.114888 -0.0783378 -0.250604 -0.174466 -0.223088 -0.10775 -0.147636 -0.174466 -0.188481 -0.223088 -0.147636 -0.174466 -0.147636 -0.223088 -0.0520929 -0.114888 -0.0818107 -0.188481 -0.147636 -0.114888 -0.10775 -0.0818107 -0.147636 -0.114888 -0.147636 -0.0818107 -0.497341 -0.43377 -0.37406 -0.371018 -0.324202 -0.43377 -0.269011 -0.37406 -0.324202 -0.43377 -0.324202 -0.37406 -0.250604 -0.223088 -0.309435 -0.188481 -0.273201 -0.223088 -0.371018 -0.309435 -0.273201 -0.223088 -0.273201 -0.309435 -0.102812 -0.178928 -0.147772 -0.269011 -0.229302 -0.178928 -0.188481 -0.147772 -0.229302 -0.178928 -0.229302 -0.147772 -0.371018 -0.273201 -0.324202 -0.188481 -0.229302 -0.273201 -0.269011 -0.324202 -0.229302 -0.273201 -0.229302 -0.324202 -0.155254 -0.0163662 -0.0925833 0.096907 0.0429938 -0.0163662 -0.0231128 -0.0925833 0.0429938 -0.0163662 0.0429938 -0.0925833 0.27047 0.241827 0.191865 0.209091 0.151674 0.241827 0.096907 0.191865 0.151674 0.241827 0.151674 0.191865 0.131047 0.0520121 0.173485 -0.0231128 0.106617 0.0520121 0.209091 0.173485 0.106617 0.0520121 0.106617 0.173485 0.096907 0.151674 0.0429938 0.209091 0.106617 0.151674 -0.0231128 0.0429938 0.106617 0.151674 0.106617 0.0429938 0.481561 0.474962 0.440783 0.468325 0.430772 0.474962 0.392721 0.440783 0.430772 0.474962 0.430772 0.440783 0.456403 0.409917 0.461984 0.362487 0.420453 0.409917 0.468325 0.461984 0.420453 0.409917 0.420453 0.461984 0.27047 0.336805 0.316081 0.392721 0.378102 0.336805 0.362487 0.316081 0.378102 0.336805 0.378102 0.316081 0.468325 0.420453 0.430772 0.362487 0.378102 0.420453 0.392721 0.430772 0.378102 0.420453 0.378102 0.430772 0.454356 0.376244 0.44937 0.294465 0.382668 0.376244 0.44939 0.44937 0.382668 0.376244 0.382668 0.44937 0.131047 0.242662 0.212722 0.328997 0.312322 0.242662 0.294465 0.212722 0.312322 0.242662 0.312322 0.212722 0.456403 0.451815 0.399893 0.44939 0.390097 0.451815 0.328997 0.399893 0.390097 0.451815 0.390097 0.399893 0.294465 0.312322 0.382668 0.328997 0.390097 0.312322 0.44939 0.382668 0.390097 0.312322 0.390097 0.382668 0.27047 0.316081 0.241827 0.362487 0.293646 0.316081 0.209091 0.241827 0.293646 0.316081 0.293646 0.241827 0.456403 0.399893 0.409917 0.328997 0.346216 0.399893 0.362487 0.409917 0.346216 0.399893 0.346216 0.409917 0.131047 0.173485 0.242662 0.209091 0.26867 0.173485 0.328997 0.242662 0.26867 0.173485 0.26867 0.242662 0.362487 0.346216 0.293646 0.328997 0.26867 0.346216 0.209091 0.293646 0.26867 0.346216 0.26867 0.293646 0.481561 0.506835 0.474962 0.536951 0.503244 0.506835 0.468325 0.474962 0.503244 0.506835 0.503244 0.474962 0.61297 0.576961 0.572253 0.538932 0.537044 0.576961 0.536951 0.572253 0.537044 0.576961 0.537044 0.572253 0.456403 0.461984 0.498642 0.468325 0.500326 0.461984 0.538932 0.498642 0.500326 0.461984 0.500326 0.498642 0.536951 0.537044 0.503244 0.538932 0.500326 0.537044 0.468325 0.503244 0.500326 0.537044 0.500326 0.503244 0.832734 0.800567 0.770483 0.765245 0.735132 0.800567 0.712038 0.770483 0.735132 0.800567 0.735132 0.770483 0.681803 0.656179 0.725591 0.637547 0.697628 0.656179 0.765245 0.725591 0.697628 0.656179 0.697628 0.725591 0.61297 0.659838 0.623134 0.712038 0.676166 0.659838 0.637547 0.623134 0.676166 0.659838 0.676166 0.623134 0.765245 0.697628 0.735132 0.637547 0.676166 0.697628 0.712038 0.735132 0.676166 0.697628 0.676166 0.735132 0.454356 0.44937 0.519687 0.44939 0.507403 0.44937 0.579249 0.519687 0.507403 0.44937 0.507403 0.519687 0.456403 0.498621 0.451815 0.550268 0.501462 0.498621 0.44939 0.451815 0.501462 0.498621 0.501462 0.451815 0.681803 0.633124 0.61085 0.579249 0.561326 0.633124 0.550268 0.61085 0.561326 0.633124 0.561326 0.61085 0.44939 0.501462 0.507403 0.550268 0.561326 0.501462 0.579249 0.507403 0.561326 0.501462 0.561326 0.507403 0.61297 0.623134 0.576961 0.637547 0.584478 0.623134 0.538932 0.576961 0.584478 0.623134 0.584478 0.576961 0.681803 0.61085 0.656179 0.550268 0.595559 0.61085 0.637547 0.656179 0.595559 0.61085 0.595559 0.656179 0.456403 0.498642 0.498621 0.538932 0.542899 0.498642 0.550268 0.498621 0.542899 0.498642 0.542899 0.498621 0.637547 0.595559 0.584478 0.550268 0.542899 0.595559 0.538932 0.584478 0.542899 0.595559 0.542899 0.584478 </DataArray>