<?xml version="1.0" encoding="UTF-8"?>
<VTKFile type="UnstructuredGrid" version="0.1" byte_order="LittleEndian" compressor="vtkZLibDataCompressor">
    <UnstructuredGrid>
        <Piece NumberOfPoints="1920" NumberOfCells="640">
            <Points>
                <DataArray type="Float64" Name="Array" NumberOfComponents="3" format="ascii" RangeMin="0" RangeMax="40">26.5724 16 0 26.0175 16 0 26.3273 15.6254 0 25.4627 16 0 25.7725 15.6254 0 26.0175 16 0 26.0822 15.2509 0 26.3273 15.6254 0 25.7725 15.6254 0 26.0175 16 0 25.7725 15.6254 0 26.3273 15.6254 0 24.3529 16 0 24.6627 15.6254 0 24.9078 16 0 24.9725 15.2509 0 25.2176 15.6254 0 24.6627 15.6254 0 25.4627 16 0 24.9078 16 0 25.2176 15.6254 0 24.6627 15.6254 0 25.2176 15.6254 0 24.9078 16 0 25.5921 14.5018 0 25.8372 14.8763 0 25.2823 14.8763 0 26.0822 15.2509 0 25.5274 15.2509 0 25.8372 14.8763 0 24.9725 15.2509 0 25.2823 14.8763 0 25.5274 15.2509 0 25.8372 14.8763 0 25.5274 15.2509 0 25.2823 14.8763 0 25.4627 16 0 25.2176 15.6254 0 25.7725 15.6254 0 24.9725 15.2509 0 25.5274 15.2509 0 25.2176 15.6254 0 26.0822 15.2509 0 25.7725 15.6254 0 25.5274 15.2509 0 25.2176 15.6254 0 25.5274 15.2509 0 25.7725 15.6254 0 22.1334 16 0 22.4432 15.6254 0 22.6883 16 0 22.753 15.2509 0 22.9981 15.6254 0 22.4432 15.6254 0 23.2432 16 0 22.6883 16 0 22.9981 15.6254 0 22.4432 15.6254 0 22.9981 15.6254 0 22.6883 16 0 23.3726 14.5018 0 23.6177 14.8763 0 23.0628 14.8763 0 23.8628 15.2509 0 23.3079 15.2509 0 23.6177 14.8763 0 22.753 15.2509 0 23.0628 14.8763 0 23.3079 15.2509 0 23.6177 14.8763 0 23.3079 15.2509 0 23.0628 14.8763 0 24.3529 16 0 23.7981 16 0 24.1078 15.6254 0 23.2432 16 0 23.553 15.6254 0 23.7981 16 0 23.8628 15.2509 0 24.1078 15.6254 0 23.553 15.6254 0 23.7981 16 0 23.553 15.6254 0 24.1078 15.6254 0 22.753 15.2509 0 23.3079 15.2509 0 22.9981 15.6254 0 23.8628 15.2509 0 23.553 15.6254 0 23.3079 15.2509 0 23.2432 16 0 22.9981 15.6254 0 23.553 15.6254 0 23.3079 15.2509 0 23.553 15.6254 0 22.9981 15.6254 0 24.6117 13.0035 0 24.8568 13.3781 0 24.302 13.3781 0 25.1019 13.7526 0 24.547 13.7526 0 24.8568 13.3781 0 23.9922 13.7526 0 24.302 13.3781 0 24.547 13.7526 0 24.8568 13.3781 0 24.547 13.7526 0 24.302 13.3781 0 25.5921 14.5018 0 25.0372 14.5018 0 25.347 14.1272 0 24.4823 14.5018 0 24.7921 14.1272 0 25.0372 14.5018 0 25.1019 13.7526 0 25.347 14.1272 0 24.7921 14.1272 0 25.0372 14.5018 0 24.7921 14.1272 0 25.347 14.1272 0 23.3726 14.5018 0 23.6824 14.1272 0 23.9275 14.5018 0 23.9922 13.7526 0 24.2372 14.1272 0 23.6824 14.1272 0 24.4823 14.5018 0 23.9275 14.5018 0 24.2372 14.1272 0 23.6824 14.1272 0 24.2372 14.1272 0 23.9275 14.5018 0 25.1019 13.7526 0 24.7921 14.1272 0 24.547 13.7526 0 24.4823 14.5018 0 24.2372 14.1272 0 24.7921 14.1272 0 23.9922 13.7526 0 24.547 13.7526 0 24.2372 14.1272 0 24.7921 14.1272 0 24.2372 14.1272 0 24.547 13.7526 0 24.3529 16 0 24.1078 15.6254 0 24.6627 15.6254 0 23.8628 15.2509 0 24.4176 15.2509 0 24.1078 15.6254 0 24.9725 15.2509 0 24.6627 15.6254 0 24.4176 15.2509 0 24.1078 15.6254 0 24.4176 15.2509 0 24.6627 15.6254 0 23.3726 14.5018 0 23.9275 14.5018 0 23.6177 14.8763 0 24.4823 14.5018 0 24.1725 14.8763 0 23.9275 14.5018 0 23.8628 15.2509 0 23.6177 14.8763 0 24.1725 14.8763 0 23.9275 14.5018 0 24.1725 14.8763 0 23.6177 14.8763 0 25.5921 14.5018 0 25.2823 14.8763 0 25.0372 14.5018 0 24.9725 15.2509 0 24.7274 14.8763 0 25.2823 14.8763 0 24.4823 14.5018 0 25.0372 14.5018 0 24.7274 14.8763 0 25.2823 14.8763 0 24.7274 14.8763 0 25.0372 14.5018 0 23.8628 15.2509 0 24.1725 14.8763 0 24.4176 15.2509 0 24.4823 14.5018 0 24.7274 14.8763 0 24.1725 14.8763 0 24.9725 15.2509 0 24.4176 15.2509 0 24.7274 14.8763 0 24.1725 14.8763 0 24.7274 14.8763 0 24.4176 15.2509 0 31.0483 16 0 30.4888 16 0 30.7535 15.6421 0 29.9293 16 0 30.1941 15.6421 0 30.4888 16 0 30.4588 15.2842 0 30.7535 15.6421 0 30.1941 15.6421 0 30.4888 16 0 30.1941 15.6421 0 30.7535 15.6421 0 28.8103 16 0 29.0751 15.6421 0 29.3698 16 0 29.3398 15.2842 0 29.6346 15.6421 0 29.0751 15.6421 0 29.9293 16 0 29.3698 16 0 29.6346 15.6421 0 29.0751 15.6421 0 29.6346 15.6421 0 29.3698 16 0 29.8694 14.5683 0 30.1641 14.9263 0 29.6046 14.9263 0 30.4588 15.2842 0 29.8993 15.2842 0 30.1641 14.9263 0 29.3398 15.2842 0 29.6046 14.9263 0 29.8993 15.2842 0 30.1641 14.9263 0 29.8993 15.2842 0 29.6046 14.9263 0 29.9293 16 0 29.6346 15.6421 0 30.1941 15.6421 0 29.3398 15.2842 0 29.8993 15.2842 0 29.6346 15.6421 0 30.4588 15.2842 0 30.1941 15.6421 0 29.8993 15.2842 0 29.6346 15.6421 0 29.8993 15.2842 0 30.1941 15.6421 0 26.5724 16 0 26.8372 15.6421 0 27.1319 16 0 27.1019 15.2842 0 27.3966 15.6421 0 26.8372 15.6421 0 27.6914 16 0 27.1319 16 0 27.3966 15.6421 0 26.8372 15.6421 0 27.3966 15.6421 0 27.1319 16 0 27.6314 14.5683 0 27.9262 14.9263 0 27.3667 14.9263 0 28.2209 15.2842 0 27.6614 15.2842 0 27.9262 14.9263 0 27.1019 15.2842 0 27.3667 14.9263 0 27.6614 15.2842 0 27.9262 14.9263 0 27.6614 15.2842 0 27.3667 14.9263 0 28.8103 16 0 28.2509 16 0 28.5156 15.6421 0 27.6914 16 0 27.9561 15.6421 0 28.2509 16 0 28.2209 15.2842 0 28.5156 15.6421 0 27.9561 15.6421 0 28.2509 16 0 27.9561 15.6421 0 28.5156 15.6421 0 27.1019 15.2842 0 27.6614 15.2842 0 27.3966 15.6421 0 28.2209 15.2842 0 27.9561 15.6421 0 27.6614 15.2842 0 27.6914 16 0 27.3966 15.6421 0 27.9561 15.6421 0 27.6614 15.2842 0 27.9561 15.6421 0 27.3966 15.6421 0 28.6904 13.1367 0 28.9852 13.4946 0 28.4257 13.4946 0 29.2799 13.8525 0 28.7204 13.8525 0 28.9852 13.4946 0 28.1609 13.8525 0 28.4257 13.4946 0 28.7204 13.8525 0 28.9852 13.4946 0 28.7204 13.8525 0 28.4257 13.4946 0 29.8694 14.5683 0 29.3099 14.5683 0 29.5746 14.2104 0 28.7504 14.5683 0 29.0151 14.2104 0 29.3099 14.5683 0 29.2799 13.8525 0 29.5746 14.2104 0 29.0151 14.2104 0 29.3099 14.5683 0 29.0151 14.2104 0 29.5746 14.2104 0 27.6314 14.5683 0 27.8962 14.2104 0 28.1909 14.5683 0 28.1609 13.8525 0 28.4557 14.2104 0 27.8962 14.2104 0 28.7504 14.5683 0 28.1909 14.5683 0 28.4557 14.2104 0 27.8962 14.2104 0 28.4557 14.2104 0 28.1909 14.5683 0 29.2799 13.8525 0 29.0151 14.2104 0 28.7204 13.8525 0 28.7504 14.5683 0 28.4557 14.2104 0 29.0151 14.2104 0 28.1609 13.8525 0 28.7204 13.8525 0 28.4557 14.2104 0 29.0151 14.2104 0 28.4557 14.2104 0 28.7204 13.8525 0 28.8103 16 0 28.5156 15.6421 0 29.0751 15.6421 0 28.2209 15.2842 0 28.7804 15.2842 0 28.5156 15.6421 0 29.3398 15.2842 0 29.0751 15.6421 0 28.7804 15.2842 0 28.5156 15.6421 0 28.7804 15.2842 0 29.0751 15.6421 0 27.6314 14.5683 0 28.1909 14.5683 0 27.9262 14.9263 0 28.7504 14.5683 0 28.4856 14.9263 0 28.1909 14.5683 0 28.2209 15.2842 0 27.9262 14.9263 0 28.4856 14.9263 0 28.1909 14.5683 0 28.4856 14.9263 0 27.9262 14.9263 0 29.8694 14.5683 0 29.6046 14.9263 0 29.3099 14.5683 0 29.3398 15.2842 0 29.0451 14.9263 0 29.6046 14.9263 0 28.7504 14.5683 0 29.3099 14.5683 0 29.0451 14.9263 0 29.6046 14.9263 0 29.0451 14.9263 0 29.3099 14.5683 0 28.2209 15.2842 0 28.4856 14.9263 0 28.7804 15.2842 0 28.7504 14.5683 0 29.0451 14.9263 0 28.4856 14.9263 0 29.3398 15.2842 0 28.7804 15.2842 0 29.0451 14.9263 0 28.4856 14.9263 0 29.0451 14.9263 0 28.7804 15.2842 0 26.5724 16 0 26.3273 15.6254 0 26.8372 15.6421 0 26.0822 15.2509 0 26.5921 15.2675 0 26.3273 15.6254 0 27.1019 15.2842 0 26.8372 15.6421 0 26.5921 15.2675 0 26.3273 15.6254 0 26.5921 15.2675 0 26.8372 15.6421 0 25.5921 14.5018 0 26.1019 14.5184 0 25.8372 14.8763 0 26.6117 14.5351 0 26.347 14.893 0 26.1019 14.5184 0 26.0822 15.2509 0 25.8372 14.8763 0 26.347 14.893 0 26.1019 14.5184 0 26.347 14.893 0 25.8372 14.8763 0 27.6314 14.5683 0 27.3667 14.9263 0 27.1216 14.5517 0 27.1019 15.2842 0 26.8568 14.9096 0 27.3667 14.9263 0 26.6117 14.5351 0 27.1216 14.5517 0 26.8568 14.9096 0 27.3667 14.9263 0 26.8568 14.9096 0 27.1216 14.5517 0 26.0822 15.2509 0 26.347 14.893 0 26.5921 15.2675 0 26.6117 14.5351 0 26.8568 14.9096 0 26.347 14.893 0 27.1019 15.2842 0 26.5921 15.2675 0 26.8568 14.9096 0 26.347 14.893 0 26.8568 14.9096 0 26.5921 15.2675 0 24.6117 13.0035 0 25.1216 13.0202 0 24.8568 13.3781 0 25.6314 13.0368 0 25.3667 13.3947 0 25.1216 13.0202 0 25.1019 13.7526 0 24.8568 13.3781 0 25.3667 13.3947 0 25.1216 13.0202 0 25.3667 13.3947 0 24.8568 13.3781 0 26.6511 13.0701 0 26.3863 13.428 0 26.1413 13.0535 0 26.1216 13.7859 0 25.8765 13.4114 0 26.3863 13.428 0 25.6314 13.0368 0 26.1413 13.0535 0 25.8765 13.4114 0 26.3863 13.428 0 25.8765 13.4114 0 26.1413 13.0535 0 25.5921 14.5018 0 25.347 14.1272 0 25.8568 14.1438 0 25.1019 13.7526 0 25.6117 13.7693 0 25.347 14.1272 0 26.1216 13.7859 0 25.8568 14.1438 0 25.6117 13.7693 0 25.347 14.1272 0 25.6117 13.7693 0 25.8568 14.1438 0 25.6314 13.0368 0 25.8765 13.4114 0 25.3667 13.3947 0 26.1216 13.7859 0 25.6117 13.7693 0 25.8765 13.4114 0 25.1019 13.7526 0 25.3667 13.3947 0 25.6117 13.7693 0 25.8765 13.4114 0 25.6117 13.7693 0 25.3667 13.3947 0 28.6904 13.1367 0 28.4257 13.4946 0 28.1806 13.12 0 28.1609 13.8525 0 27.9159 13.478 0 28.4257 13.4946 0 27.6708 13.1034 0 28.1806 13.12 0 27.9159 13.478 0 28.4257 13.4946 0 27.9159 13.478 0 28.1806 13.12 0 27.6314 14.5683 0 27.3863 14.1938 0 27.8962 14.2104 0 27.1413 13.8192 0 27.6511 13.8359 0 27.3863 14.1938 0 28.1609 13.8525 0 27.8962 14.2104 0 27.6511 13.8359 0 27.3863 14.1938 0 27.6511 13.8359 0 27.8962 14.2104 0 26.6511 13.0701 0 27.1609 13.0867 0 26.8962 13.4447 0 27.6708 13.1034 0 27.406 13.4613 0 27.1609 13.0867 0 27.1413 13.8192 0 26.8962 13.4447 0 27.406 13.4613 0 27.1609 13.0867 0 27.406 13.4613 0 26.8962 13.4447 0 28.1609 13.8525 0 27.6511 13.8359 0 27.9159 13.478 0 27.1413 13.8192 0 27.406 13.4613 0 27.6511 13.8359 0 27.6708 13.1034 0 27.9159 13.478 0 27.406 13.4613 0 27.6511 13.8359 0 27.406 13.4613 0 27.9159 13.478 0 25.5921 14.5018 0 25.8568 14.1438 0 26.1019 14.5184 0 26.1216 13.7859 0 26.3667 14.1605 0 25.8568 14.1438 0 26.6117 14.5351 0 26.1019 14.5184 0 26.3667 14.1605 0 25.8568 14.1438 0 26.3667 14.1605 0 26.1019 14.5184 0 26.6511 13.0701 0 26.8962 13.4447 0 26.3863 13.428 0 27.1413 13.8192 0 26.6314 13.8026 0 26.8962 13.4447 0 26.1216 13.7859 0 26.3863 13.428 0 26.6314 13.8026 0 26.8962 13.4447 0 26.6314 13.8026 0 26.386
[...]
            <PointData>
                <DataArray Name="p" type="Float64" format="ascii">0.17682 0.182733 0.181148 0.18891 0.187342 0.182733 0.185722 0.181148 0.187342 0.182733 0.187342 0.181148 0.202766 0.200951 0.195517 0.199032 0.193882 0.200951 0.18891 0.195517 0.193882 0.200951 0.193882 0.195517 0.196861 0.190859 0.197516 0.185722 0.192171 0.190859 0.199032 0.197516 0.192171 0.190859 0.192171 0.197516 0.18891 0.193882 0.187342 0.199032 0.192171 0.193882 0.185722 0.187342 0.192171 0.193882 0.192171 0.187342 0.24409 0.239763 0.23116 0.235124 0.227813 0.239763 0.220261 0.23116 0.227813 0.239763 0.227813 0.23116 0.227022 0.220927 0.230692 0.214802 0.224222 0.220927 0.235124 0.230692 0.224222 0.220927 0.224222 0.230692 0.202766 0.210907 0.208772 0.220261 0.217623 0.210907 0.214802 0.208772 0.217623 0.210907 0.217623 0.208772 0.235124 0.224222 0.227813 0.214802 0.217623 0.224222 0.220261 0.227813 0.217623 0.224222 0.217623 0.227813 0.227476 0.219552 0.224845 0.211487 0.217665 0.219552 0.22386 0.224845 0.217665 0.219552 0.217665 0.224845 0.196861 0.203607 0.203807 0.210756 0.210424 0.203607 0.211487 0.203807 0.210424 0.203607 0.210424 0.203807 0.227022 0.224635 0.218483 0.22386 0.217318 0.224635 0.210756 0.218483 0.217318 0.224635 0.217318 0.218483 0.211487 0.210424 0.217665 0.210756 0.217318 0.210424 0.22386 0.217665 0.217318 0.210424 0.217318 0.217665 0.202766 0.208772 0.200951 0.214802 0.206494 0.208772 0.199032 0.200951 0.206494 0.208772 0.206494 0.200951 0.227022 0.218483 0.220927 0.210756 0.212339 0.218483 0.214802 0.220927 0.212339 0.218483 0.212339 0.220927 0.196861 0.197516 0.203607 0.199032 0.204608 0.197516 0.210756 0.203607 0.204608 0.197516 0.204608 0.203607 0.214802 0.212339 0.206494 0.210756 0.204608 0.212339 0.199032 0.206494 0.204608 0.212339 0.204608 0.206494 0.127626 0.134365 0.131953 0.140888 0.138652 0.134365 0.136441 0.131953 0.138652 0.134365 0.138652 0.131953 0.153341 0.151463 0.147208 0.149607 0.14515 0.151463 0.140888 0.147208 0.14515 0.151463 0.14515 0.147208 0.14672 0.141274 0.147962 0.136441 0.143118 0.141274 0.149607 0.147962 0.143118 0.141274 0.143118 0.147962 0.140888 0.14515 0.138652 0.149607 0.143118 0.14515 0.136441 0.138652 0.143118 0.14515 0.143118 0.138652 0.17682 0.17556 0.170979 0.174285 0.169603 0.17556 0.165178 0.170979 0.169603 0.17556 0.169603 0.170979 0.172915 0.167113 0.173304 0.16212 0.16822 0.167113 0.174285 0.173304 0.16822 0.167113 0.16822 0.173304 0.153341 0.159316 0.157616 0.165178 0.163645 0.159316 0.16212 0.157616 0.163645 0.159316 0.163645 0.157616 0.174285 0.16822 0.169603 0.16212 0.163645 0.16822 0.165178 0.169603 0.163645 0.16822 0.163645 0.169603 0.17874 0.169079 0.176374 0.160496 0.167585 0.169079 0.174497 0.176374 0.167585 0.169079 0.167585 0.176374 0.14672 0.153481 0.153065 0.160079 0.159955 0.153481 0.160496 0.153065 0.159955 0.153481 0.159955 0.153065 0.172915 0.173306 0.166553 0.174497 0.166703 0.173306 0.160079 0.166553 0.166703 0.173306 0.166703 0.166553 0.160496 0.159955 0.167585 0.160079 0.166703 0.159955 0.174497 0.167585 0.166703 0.159955 0.166703 0.167585 0.153341 0.157616 0.151463 0.16212 0.155932 0.157616 0.149607 0.151463 0.155932 0.157616 0.155932 0.151463 0.172915 0.166553 0.167113 0.160079 0.16085 0.166553 0.16212 0.167113 0.16085 0.166553 0.16085 0.167113 0.14672 0.147962 0.153481 0.149607 0.154482 0.147962 0.160079 0.153481 0.154482 0.147962 0.154482 0.153481 0.16212 0.16085 0.155932 0.160079 0.154482 0.16085 0.149607 0.155932 0.154482 0.16085 0.154482 0.155932 0.17682 0.181148 0.17556 0.185722 0.179942 0.181148 0.174285 0.17556 0.179942 0.181148 0.179942 0.17556 0.196861 0.190745 0.190859 0.184744 0.184889 0.190745 0.185722 0.190859 0.184889 0.190745 0.184889 0.190859 0.172915 0.173304 0.178824 0.174285 0.179056 0.173304 0.184744 0.178824 0.179056 0.173304 0.179056 0.178824 0.185722 0.184889 0.179942 0.184744 0.179056 0.184889 0.174285 0.179942 0.179056 0.184889 0.179056 0.179942 0.227476 0.222931 0.219552 0.217706 0.214093 0.222931 0.211487 0.219552 0.214093 0.222931 0.214093 0.219552 0.20595 0.202358 0.21205 0.199524 0.208362 0.202358 0.217706 0.21205 0.208362 0.202358 0.208362 0.21205 0.196861 0.203807 0.19767 0.211487 0.205567 0.203807 0.199524 0.19767 0.205567 0.203807 0.205567 0.19767 0.217706 0.208362 0.214093 0.199524 0.205567 0.208362 0.211487 0.214093 0.205567 0.208362 0.205567 0.214093 0.17874 0.176374 0.185874 0.174497 0.18312 0.176374 0.192814 0.185874 0.18312 0.176374 0.18312 0.185874 0.172915 0.179429 0.173306 0.187206 0.180906 0.179429 0.174497 0.173306 0.180906 0.179429 0.180906 0.173306 0.20595 0.19953 0.196137 0.192814 0.189713 0.19953 0.187206 0.196137 0.189713 0.19953 0.189713 0.196137 0.174497 0.180906 0.18312 0.187206 0.189713 0.180906 0.192814 0.18312 0.189713 0.180906 0.189713 0.18312 0.196861 0.19767 0.190745 0.199524 0.191576 0.19767 0.184744 0.190745 0.191576 0.19767 0.191576 0.190745 0.20595 0.196137 0.202358 0.187206 0.193422 0.196137 0.199524 0.202358 0.193422 0.196137 0.193422 0.202358 0.172915 0.178824 0.179429 0.184744 0.185512 0.178824 0.187206 0.179429 0.185512 0.178824 0.185512 0.179429 0.199524 0.193422 0.191576 0.187206 0.185512 0.193422 0.184744 0.191576 0.185512 0.193422 0.185512 0.191576 0.0666469 0.0748451 0.0725266 0.0829086 0.0806615 0.0748451 0.078452 0.0725266 0.0806615 0.0748451 0.0806615 0.0725266 0.0985698 0.0964909 0.0908227 0.0944643 0.0886543 0.0964909 0.0829086 0.0908227 0.0886543 0.0964909 0.0886543 0.0908227 0.0908124 0.0845015 0.0925481 0.078452 0.0865327 0.0845015 0.0944643 0.0925481 0.0865327 0.0845015 0.0865327 0.0925481 0.0829086 0.0886543 0.0806615 0.0944643 0.0865327 0.0886543 0.078452 0.0806615 0.0865327 0.0886543 0.0865327 0.0806615 0.127626 0.126002 0.120672 0.124454 0.118924 0.126002 0.113506 0.120672 0.118924 0.126002 0.118924 0.120672 0.12205 0.115725 0.123092 0.10983 0.117241 0.115725 0.124454 0.123092 0.117241 0.115725 0.117241 0.123092 0.0985698 0.106136 0.104156 0.113506 0.111637 0.106136 0.10983 0.104156 0.111637 0.106136 0.111637 0.104156 0.124454 0.117241 0.118924 0.10983 0.111637 0.117241 0.113506 0.118924 0.111637 0.117241 0.111637 0.118924 0.12204 0.113076 0.121503 0.104937 0.113165 0.113076 0.121261 0.121503 0.113165 0.113076 0.113165 0.121503 0.0908124 0.0988613 0.0975626 0.106757 0.10567 0.0988613 0.104937 0.0975626 0.10567 0.0988613 0.10567 0.0975626 0.12205 0.121429 0.11449 0.121261 0.113627 0.121429 0.106757 0.11449 0.113627 0.121429 0.113627 0.11449 0.104937 0.10567 0.113165 0.106757 0.113627 0.10567 0.121261 0.113165 0.113627 0.10567 0.113627 0.113165 0.0985698 0.104156 0.0964909 0.10983 0.102235 0.104156 0.0944643 0.0964909 0.102235 0.104156 0.102235 0.0964909 0.12205 0.11449 0.115725 0.106757 0.10817 0.11449 0.10983 0.115725 0.10817 0.11449 0.10817 0.115725 0.0908124 0.0925481 0.0988613 0.0944643 0.100441 0.0925481 0.106757 0.0988613 0.100441 0.0925481 0.100441 0.0988613 0.10983 0.10817 0.102235 0.106757 0.100441 0.10817 0.0944643 0.102235 0.100441 0.10817 0.100441 0.102235 0.127626 0.131953 0.126002 0.136441 0.130521 0.131953 0.124454 0.126002 0.130521 0.131953 0.130521 0.126002 0.14672 0.140757 0.141274 0.134661 0.135354 0.140757 0.136441 0.141274 0.135354 0.140757 0.135354 0.141274 0.12205 0.123092 0.128425 0.124454 0.129297 0.123092 0.134661 0.128425 0.129297 0.123092 0.129297 0.128425 0.136441 0.135354 0.130521 0.134661 0.129297 0.135354 0.124454 0.130521 0.129297 0.135354 0.129297 0.130521 0.17874 0.172091 0.169079 0.165334 0.162659 0.172091 0.160496 0.169079 0.162659 0.172091 0.162659 0.169079 0.151359 0.149428 0.158404 0.147924 0.156112 0.149428 0.165334 0.158404 0.156112 0.149428 0.156112 0.158404 0.14672 0.153065 0.146993 0.160496 0.154268 0.153065 0.147924 0.146993 0.154268 0.153065 0.154268 0.146993 0.165334 0.156112 0.162659 0.147924 0.154268 0.156112 0.160496 0.162659 0.154268 0.156112 0.154268 0.162659 0.12204 0.121503 0.129518 0.121261 0.128649 0.121503 0.136903 0.129518 0.128649 0.121503 0.128649 0.129518 0.12205 0.128018 0.121429 0.134838 0.128108 0.128018 0.121261 0.121429 0.128108 0.128018 0.128108 0.121429 0.151359 0.144183 0.142619 0.136903 0.135691 0.144183 0.134838 0.142619 0.135691 0.144183 0.135691 0.142619 0.121261 0.128108 0.128649 0.134838 0.135691 0.128108 0.136903 0.128649 0.135691 0.128108 0.135691 0.128649 0.14672 0.146993 0.140757 0.147924 0.140804 0.146993 0.134661 0.140757 0.140804 0.146993 0.140804 0.140757 0.151359 0.142619 0.149428 0.134838 0.141442 0.142619 0.147924 0.149428 0.141442 0.142619 0.141442 0.149428 0.12205 0.128425 0.128018 0.134661 0.134476 0.128425 0.134838 0.128018 0.134476 0.128425 0.134476 0.128018 0.147924 0.141442 0.140804 0.134838 0.134476 0.141442 0.134661 0.140804 0.134476 0.141442 0.134476 0.140804 -0.000807828 0.00725291 0.00605078 0.0158044 0.0144681 0.00725291 0.0130166 0.00605078 0.0144681 0.00725291 0.0144681 0.00605078 0.0329178 0.0315638 0.0243558 0.0302028 0.0230014 0.0315638 0.0158044 0.0243558 0.0230014 0.0315638 0.0230014 0.0243558 0.0273919 0.0201168 0.0288127 0.0130166 0.0216098 0.0201168 0.0302028 0.0288127 0.0216098 0.0201168 0.0216098 0.0288127 0.0158044 0.0230014 0.0144681 0.0302028 0.0216098 0.0230014 0.0130166 0.0144681 0.0216098 0.0230014 0.0216098 0.0144681 0.0666469 0.0653963 0.0583396 0.0642049 0.05705 0.0653963 0.0499324 0.0583396 0.05705 0.0653963 0.05705 0.0583396 0.0621832 0.054629 0.0631129 0.0473232 0.0558038 0.054629 0.0642049 0.0631129 0.0558038 0.054629 0.0558038 0.0631129 0.0329178 0.041452 0.0401097 0.0499324 0.0486127 0.041452 0.0473232 0.0401097 0.0486127 0.041452 0.0486127 0.0401097 0.0642049 0.0558038 0.05705 0.0473232 0.0486127 0.0558038 0.0499324 0.05705 0.0486127 0.0558038 0.0486127 0.05705 0.0606836 0.0514738 0.0607559 0.0429409 0.0519887 0.0514738 0.0610026 0.0607559 0.0519887 0.0514738 0.0519887 0.0607559 0.0273919 0.0361751 0.0349443 0.0449105 0.0438562 0.0361751 0.0429409 0.0349443 0.0438562 0.0361751 0.0438562 0.0349443 0.0621832 0.061471 0.0535731 0.0610026 0.0526845 0.061471 0.0449105 0.0535731 0.0526845 0.061471 0.0526845 0.0535731 0.0429409 0.0438562 0.0519887 0.0449105 0.0526845 0.0438562 0.0610026 0.0519887 0.0526845 0.0438562 0.0526845 0.0519887 0.0329178 0.0401097 0.0315638 0.0473232 0.0387807 0.0401097 0.0302028 0.0315638 0.0387807 0.0401097 0.0387807 0.0315638 0.0621832 0.0535731 0.054629 0.0449105 0.0460784 0.0535731 0.0473232 0.054629 0.0460784 0.0535731 0.0460784 0.054629 0.0273919 0.0288127 0.0361751 0.0302028 0.0374635 0.0288127 0.0449105 0.0361751 0.0374635 0.0288127 0.0374635 0.0361751 0.0473232 0.0460784 0.0387807 0.0449105 0.0374635 0.0460784 0.0302028 0.0387807 0.0374635 0.0460784 0.0374635 0.0387807 0.0666469 0.0725266 0.0653963 0.078452 0.0713752 0.0725266 0.0642049 0.0653963 0.0713752 0.0725266 0.0713752 0.0653963 0.0908124 0.0838138 0.0845015 0.0767062 0.0774715 0.0838138 0.078452 0.0845015 0.0774715 0.0838138 0.0774715 0.0845015 0.0621832 0.0631129 0.0694919 0.0642049 0.0703397 0.0631129 0.0767062 0.0694919 0.0703397 0.0631129 0.0703397 0.0694919 0.078452 0.0774715 0.0713752 0.0767062 0.0703397 0.0774715 0.0642049 0.0713752 0.0703397 0.0774715 0.0703397 0.0713752 0.12204 0.114806 0.113076 0.107422 0.105952 0.114806 0.104937 0.113076 0.105952 0.114806 0.105952 0.113076 0.0922792 0.0913479 0.0999119 0.0907589 0.0987256 0.0913479 0.107422 0.0999119 0.0987256 0.0913479 0.0987256 0.0999119 0.0908124 0.0975626 0.0905681 0.104937 0.0979065 0.0975626 0.0907589 0.0905681 0.0979065 0.0975626 0.0979065 0.0905681 0.107422 0.0987256 0.105952 0.0907589 0.0979065 0.0987256 0.104937 0.105952 0.0979065 0.0987256 0.0979065 0.105952 0.0606836 0.0607559 0.0687292 0.0610026 0.068559 0.0607559 0.0766815 0.0687292 0.068559 0.0607559 0.068559 0.0687292 0.0621832 0.0689006 0.061471 0.0760919 0.0685968 0.0689006 0.0610026 0.061471 0.0685968 0.0689006 0.0685968 0.061471 0.0922792 0.0845335 0.0838648 0.0766815 0.0762613 0.0845335 0.0760919 0.0838648 0.0762613 0.0845335 0.0762613 0.0838648 0.0610026 0.0685968 0.068559 0.0760919 0.0762613 0.0685968 0.0766815 0.068559 0.0762613 0.0685968 0.0762613 0.068559 0.0908124 0.0905681 0.0838138 0.0907589 0.0834604 0.0905681 0.0767062 0.0838138 0.0834604 0.0905681 0.0834604 0.0838138 0.0922792 0.0838648 0.0913479 0.0760919 0.0834819 0.0838648 0.0907589 0.0913479 0.0834819 0.0838648 0.0834819 0.0913479 0.0621832 0.0694919 0.0689006 0.0767062 0.0762315 0.0694919 0.0760919 0.0689006 0.0762315 0.0694919 0.0762315 0.0689006 0.0907589 0.0834819 0.0834604 0.0760919 0.0762315 0.0834819 0.0767062 0.0834604 0.0762315 0.0834819 0.0762315 0.0834604 0.12204 0.129518 0.130894 0.136903 0.138677 0.129518 0.140526 0.130894 0.138677 0.129518 0.138677 0.130894 0.151359 0.153972 0.144183 0.156688 0.146373 0.153972 0.136903 0.144183 0.146373 0.153972 0.146373 0.144183 0.161655 0.150808 0.159294 0.140526 0.148645 0.150808 0.156688 0.159294 0.148645 0.150808 0.148645 0.159294 0.136903 0.146373 0.138677 0.156688 0.148645 0.146373 0.140526 0.138677 0.148645 0.146373 0.148645 0.138677 0.17874 0.183065 0.172091 0.187635 0.176032 0.183065 0.165334 0.172091 0.176032 0.183065 0.176032 0.172091 0.196479 0.184158 0.192149 0.172454 0.18012 0.184158 0.187635 0.192149 0.18012 0.184158 0.18012 0.192149 0.151359 0.158404 0.16146 0.165334 0.168818 0.158404 0.172454 0.16146 0.168818 0.158404 0.168818 0.16146 0.187635 0.18012 0.176032 0.172454 0.168818 0.18012 0.165334 0.176032 0.168818 0.18012 0.168818 0.176032 0.208906 0.19672 0.206896 0.184721 0.194388 0.19672 0.204004 0.206896 0.194388 0.19672 0.194388 0.206896 0.161655 0.170515 0.172973 0.179302 0.182247 0.170515 0.184721 0.172973 0.182247 0.170515 0.182247 0.172973 0.196479 0.200471 0.187961 0.204004 0.191416 0.200471 0.179302 0.187961 0.191416 0.200471 0.191416 0.187961 0.184721 0.182247 0.194388 0.179302 0.191416 0.182247 0.204004 0.194388 0.191416 0.182247 0.191416 0.194388 0.151359 0.16146 0.153972 0.172454 0.164624 0.16146 0.156688 0.153972 0.164624 0.16146 0.164624 0.153972 0.196479 0.187961 0.184158 0.179302 0.175994 0.187961 0.172454 0.184158 0.175994 0.187961 0.175994 0.184158 0.161655 0.159294 0.170515 0.156688 0.167696 0.159294 0.179302 0.170515 0.167696 0.159294 0.167696 0.170515 0.172454 0.175994 0.164624 0.179302 0.167696 0.175994 0.156688 0.164624 0.167696 0.175994 0.167696 0.164624 0.12204 0.130894 0.123465 0.140526 0.132734 0.130894 0.12499 0.123465 0.132734 0.130894 0.132734 0.123465 0.161655 0.153128 0.150808 0.144681 0.142657 0.153128 0.140526 0.150808 0.142657 0.153128 0.142657 0.150808 0.127902 0.126497 0.136258 0.12499 0.134562 0.126497 0.144681 0.136258 0.134562 0.126497 0.134562 0.136258 0.140526 0.142657 0.132734 0.144681 0.134562 0.142657 0.12499 0.132734 0.134562 0.142657 0.134562 0.132734 0.208906 0.198848 0.19672 0.18893 0.187089 0.198848 0.184721 0.19672 0.187089 0.198848 0.187089 0.19672 0.169278 0.167992 0.179056 0.166242 0.177501 0.167992 0.18893 0.179056 0.177501 0.167992 0.177501 0.179056 0.161655 0.172973 0.164083 0.184721 0.175423 0.172973 0.166242 0.164083 0.175423 0.172973 0.175423 0.164083 0.18893 0.177501 0.187089 0.166242 0.175423 0.177501 0.184721 0.187089 0.175423 0.177501 0.175423 0.187089 0.131155 0.130803 0.140547 0.130112 0.139974 0.130803 0.150019 0.140547 0.139974 0.130803 0.139974 0.140547 0.127902 0.137772 0.129123 0.148027 0.139028 0.137772 0.130112 0.129123 0.139028 0.137772 0.139028 0.129123 0.169278 0.159603 0.158567 0.150019 0.149222 0.159603 0.148027 0.158567 0.149222 0.159603 0.149222 0.158567 0.130112 0.139028 0.139974 0.148027 0.149222 0.139028 0.150019 0.139974 0.149222 0.139028 0.149222 0.139974 0.161655 0.164083 0.153128 0.166242 0.155258 0.164083 0.144681 0.153128 0.155258 0.164083 0.155258 0.153128 0.169278 0.158567 0.167992 0.148027 0.157086 0.158567 0.166242 0.167992 0.157086 0.158567 0.157086 0.167992 0.127902 0.136258 0.137772 0.144681 0.146483 0.136258 0.148027 0.137772 0.146483 0.136258 0.146483 0.137772 0.166242 0.157086 0.155258 0.148027 0.146483 0.157086 0.144681 0.155258 0.146483 0.157086 0.146483 0.155258 0.17874 0.185874 0.188099 0.192814 0.195432 0.185874 0.198081 0.188099 0.195432 0.185874 0.195432 0.188099 0.20595 0.20923 0.19953 0.212687 0.2025 0.20923 0.192814 0.19953 0.2025 0.20923 0.2025 0.19953 0.219483 0.208581 0.216167 0.198081 0.205577 0.208581 0.212687 0.216167 0.205577 0.208581 0.205577 0.216167 0.192814 0.2025 0.195432 0.212687 0.205577 0.2025 0.198081 0.195432 0.205577 0.2025 0.205577 0.195432 0.227476 0.230973 0.222931 0.235285 0.22653 0.230973 0.217706 0.222931 0.22653 0.230973 0.22653 0.222931 0.245763 0.235556 0.240329 0.225428 0.230845 0.235556 0.235285 0.240329 0.230845 0.235556 0.230845 0.240329 0.20595 0.21205 0.215547 0.217706 0.221352 0.21205 0.225428 0.215547 0.221352 0.21205 0.221352 0.215547 0.235285 0.230845 0.22653 0.225428 0.221352 0.230845 0.217706 0.22653 0.221352 0.230845 0.221352 0.22653 0.266894 0.254576 0.262228 0.242447 0.250215 0.254576 0.256973 0.262228 0.250215 0.254576 0.250215 0.262228 0.219483 0.22716 0.2308 0.234187 0.238472 0.22716 0.242447 0.2308 0.238472 0.22716 0.238472 0.2308 0.245763 0.251399 0.240507 0.256973 0.245452 0.251399 0.234187 0.240507 0.245452 0.251399 0.245452 0.240507 0.242447 0.238472 0.250215 0.234187 0.245452 0.238472 0.256973 0.250215 0.245452 0.238472 0.245452 0.250215 0.20595 0.215547 0.20923 0.225428 0.21937 0.215547 0.212687 0.20923 0.21937 0.215547 0.21937 0.20923 0.245763 0.240507 0.235556 0.234187 0.229789 0.240507 0.225428 0.235556 0.229789 0.240507 0.229789 0.235556 0.219483 0.216167 0.22716 0.212687 0.223292 0.216167 0.234187 0.22716 0.223292 0.216167 0.223292 0.22716 0.225428 0.229789 0.21937 0.234187 0.223292 0.229789 0.212687 0.21937 0.223292 0.229789 0.223292 0.21937 </DataArray>