<?xml version="1.0" encoding="UTF-8"?>
<VTKFile type="UnstructuredGrid" version="0.1" byte_order="LittleEndian" compressor="vtkZLibDataCompressor">
    <UnstructuredGrid>
        <Piece NumberOfPoints="1920" NumberOfCells="640">
            <Points>
                <DataArray type="Float64" Name="Array" NumberOfComponents="3" format="ascii" RangeMin="0" RangeMax="40">40 12 0 40 12.5 0 39.5572 12.0946 0 40 13 0 39.5572 12.5946 0 40 12.5 0 39.1143 12.1892 0 39.5572 12.0946 0 39.5572 12.5946 0 40 12.5 0 39.5572 12.5946 0 39.5572 12.0946 0 40 14 0 39.5572 13.5946 0 40 13.5 0 39.1143 13.1892 0 39.5572 13.0946 0 39.5572 13.5946 0 40 13 0 40 13.5 0 39.5572 13.0946 0 39.5572 13.5946 0 39.5572 13.0946 0 40 13.5 0 38.2286 12.3785 0 38.6715 12.2839 0 38.6715 12.7839 0 39.1143 12.1892 0 39.1143 12.6892 0 38.6715 12.2839 0 39.1143 13.1892 0 38.6715 12.7839 0 39.1143 12.6892 0 38.6715 12.2839 0 39.1143 12.6892 0 38.6715 12.7839 0 40 13 0 39.5572 13.0946 0 39.5572 12.5946 0 39.1143 13.1892 0 39.1143 12.6892 0 39.5572 13.0946 0 39.1143 12.1892 0 39.5572 12.5946 0 39.1143 12.6892 0 39.5572 13.0946 0 39.1143 12.6892 0 39.5572 12.5946 0 40 16 0 39.5572 15.5946 0 40 15.5 0 39.1143 15.1892 0 39.5572 15.0946 0 39.5572 15.5946 0 40 15 0 40 15.5 0 39.5572 15.0946 0 39.5572 15.5946 0 39.5572 15.0946 0 40 15.5 0 38.2286 14.3785 0 38.6715 14.2839 0 38.6715 14.7839 0 39.1143 14.1892 0 39.1143 14.6892 0 38.6715 14.2839 0 39.1143 15.1892 0 38.6715 14.7839 0 39.1143 14.6892 0 38.6715 14.2839 0 39.1143 14.6892 0 38.6715 14.7839 0 40 14 0 40 14.5 0 39.5572 14.0946 0 40 15 0 39.5572 14.5946 0 40 14.5 0 39.1143 14.1892 0 39.5572 14.0946 0 39.5572 14.5946 0 40 14.5 0 39.5572 14.5946 0 39.5572 14.0946 0 39.1143 15.1892 0 39.1143 14.6892 0 39.5572 15.0946 0 39.1143 14.1892 0 39.5572 14.5946 0 39.1143 14.6892 0 40 15 0 39.5572 15.0946 0 39.5572 14.5946 0 39.1143 14.6892 0 39.5572 14.5946 0 39.5572 15.0946 0 36.4572 12.757 0 36.9001 12.6623 0 36.9001 13.1623 0 37.3429 12.5677 0 37.3429 13.0677 0 36.9001 12.6623 0 37.3429 13.5677 0 36.9001 13.1623 0 37.3429 13.0677 0 36.9001 12.6623 0 37.3429 13.0677 0 36.9001 13.1623 0 38.2286 12.3785 0 38.2286 12.8785 0 37.7858 12.4731 0 38.2286 13.3785 0 37.7858 12.9731 0 38.2286 12.8785 0 37.3429 12.5677 0 37.7858 12.4731 0 37.7858 12.9731 0 38.2286 12.8785 0 37.7858 12.9731 0 37.7858 12.4731 0 38.2286 14.3785 0 37.7858 13.9731 0 38.2286 13.8785 0 37.3429 13.5677 0 37.7858 13.4731 0 37.7858 13.9731 0 38.2286 13.3785 0 38.2286 13.8785 0 37.7858 13.4731 0 37.7858 13.9731 0 37.7858 13.4731 0 38.2286 13.8785 0 37.3429 12.5677 0 37.7858 12.9731 0 37.3429 13.0677 0 38.2286 13.3785 0 37.7858 13.4731 0 37.7858 12.9731 0 37.3429 13.5677 0 37.3429 13.0677 0 37.7858 13.4731 0 37.7858 12.9731 0 37.7858 13.4731 0 37.3429 13.0677 0 40 14 0 39.5572 14.0946 0 39.5572 13.5946 0 39.1143 14.1892 0 39.1143 13.6892 0 39.5572 14.0946 0 39.1143 13.1892 0 39.5572 13.5946 0 39.1143 13.6892 0 39.5572 14.0946 0 39.1143 13.6892 0 39.5572 13.5946 0 38.2286 14.3785 0 38.2286 13.8785 0 38.6715 14.2839 0 38.2286 13.3785 0 38.6715 13.7839 0 38.2286 13.8785 0 39.1143 14.1892 0 38.6715 14.2839 0 38.6715 13.7839 0 38.2286 13.8785 0 38.6715 13.7839 0 38.6715 14.2839 0 38.2286 12.3785 0 38.6715 12.7839 0 38.2286 12.8785 0 39.1143 13.1892 0 38.6715 13.2839 0 38.6715 12.7839 0 38.2286 13.3785 0 38.2286 12.8785 0 38.6715 13.2839 0 38.6715 12.7839 0 38.6715 13.2839 0 38.2286 12.8785 0 39.1143 14.1892 0 38.6715 13.7839 0 39.1143 13.6892 0 38.2286 13.3785 0 38.6715 13.2839 0 38.6715 13.7839 0 39.1143 13.1892 0 39.1143 13.6892 0 38.6715 13.2839 0 38.6715 13.7839 0 38.6715 13.2839 0 39.1143 13.6892 0 40 8 0 40 8.5 0 39.5827 8.12396 0 40 9 0 39.5827 8.62396 0 40 8.5 0 39.1653 8.24792 0 39.5827 8.12396 0 39.5827 8.62396 0 40 8.5 0 39.5827 8.62396 0 39.5827 8.12396 0 40 10 0 39.5827 9.62396 0 40 9.5 0 39.1653 9.24792 0 39.5827 9.12396 0 39.5827 9.62396 0 40 9 0 40 9.5 0 39.5827 9.12396 0 39.5827 9.62396 0 39.5827 9.12396 0 40 9.5 0 38.3307 8.49584 0 38.748 8.37188 0 38.748 8.87188 0 39.1653 8.24792 0 39.1653 8.74792 0 38.748 8.37188 0 39.1653 9.24792 0 38.748 8.87188 0 39.1653 8.74792 0 38.748 8.37188 0 39.1653 8.74792 0 38.748 8.87188 0 40 9 0 39.5827 9.12396 0 39.5827 8.62396 0 39.1653 9.24792 0 39.1653 8.74792 0 39.5827 9.12396 0 39.1653 8.24792 0 39.5827 8.62396 0 39.1653 8.74792 0 39.5827 9.12396 0 39.1653 8.74792 0 39.5827 8.62396 0 40 12 0 39.5827 11.624 0 40 11.5 0 39.1653 11.2479 0 39.5827 11.124 0 39.5827 11.624 0 40 11 0 40 11.5 0 39.5827 11.124 0 39.5827 11.624 0 39.5827 11.124 0 40 11.5 0 38.3307 10.4958 0 38.748 10.3719 0 38.748 10.8719 0 39.1653 10.2479 0 39.1653 10.7479 0 38.748 10.3719 0 39.1653 11.2479 0 38.748 10.8719 0 39.1653 10.7479 0 38.748 10.3719 0 39.1653 10.7479 0 38.748 10.8719 0 40 10 0 40 10.5 0 39.5827 10.124 0 40 11 0 39.5827 10.624 0 40 10.5 0 39.1653 10.2479 0 39.5827 10.124 0 39.5827 10.624 0 40 10.5 0 39.5827 10.624 0 39.5827 10.124 0 39.1653 11.2479 0 39.1653 10.7479 0 39.5827 11.124 0 39.1653 10.2479 0 39.5827 10.624 0 39.1653 10.7479 0 40 11 0 39.5827 11.124 0 39.5827 10.624 0 39.1653 10.7479 0 39.5827 10.624 0 39.5827 11.124 0 36.6614 8.99168 0 37.0787 8.86772 0 37.0787 9.36772 0 37.496 8.74376 0 37.496 9.24376 0 37.0787 8.86772 0 37.496 9.74376 0 37.0787 9.36772 0 37.496 9.24376 0 37.0787 8.86772 0 37.496 9.24376 0 37.0787 9.36772 0 38.3307 8.49584 0 38.3307 8.99584 0 37.9134 8.6198 0 38.3307 9.49584 0 37.9134 9.1198 0 38.3307 8.99584 0 37.496 8.74376 0 37.9134 8.6198 0 37.9134 9.1198 0 38.3307 8.99584 0 37.9134 9.1198 0 37.9134 8.6198 0 38.3307 10.4958 0 37.9134 10.1198 0 38.3307 9.99584 0 37.496 9.74376 0 37.9134 9.6198 0 37.9134 10.1198 0 38.3307 9.49584 0 38.3307 9.99584 0 37.9134 9.6198 0 37.9134 10.1198 0 37.9134 9.6198 0 38.3307 9.99584 0 37.496 8.74376 0 37.9134 9.1198 0 37.496 9.24376 0 38.3307 9.49584 0 37.9134 9.6198 0 37.9134 9.1198 0 37.496 9.74376 0 37.496 9.24376 0 37.9134 9.6198 0 37.9134 9.1198 0 37.9134 9.6198 0 37.496 9.24376 0 40 10 0 39.5827 10.124 0 39.5827 9.62396 0 39.1653 10.2479 0 39.1653 9.74792 0 39.5827 10.124 0 39.1653 9.24792 0 39.5827 9.62396 0 39.1653 9.74792 0 39.5827 10.124 0 39.1653 9.74792 0 39.5827 9.62396 0 38.3307 10.4958 0 38.3307 9.99584 0 38.748 10.3719 0 38.3307 9.49584 0 38.748 9.87188 0 38.3307 9.99584 0 39.1653 10.2479 0 38.748 10.3719 0 38.748 9.87188 0 38.3307 9.99584 0 38.748 9.87188 0 38.748 10.3719 0 38.3307 8.49584 0 38.748 8.87188 0 38.3307 8.99584 0 39.1653 9.24792 0 38.748 9.37188 0 38.748 8.87188 0 38.3307 9.49584 0 38.3307 8.99584 0 38.748 9.37188 0 38.748 8.87188 0 38.748 9.37188 0 38.3307 8.99584 0 39.1653 10.2479 0 38.748 9.87188 0 39.1653 9.74792 0 38.3307 9.49584 0 38.748 9.37188 0 38.748 9.87188 0 39.1653 9.24792 0 39.1653 9.74792 0 38.748 9.37188 0 38.748 9.87188 0 38.748 9.37188 0 39.1653 9.74792 0 40 12 0 39.5572 12.0946 0 39.5827 11.624 0 39.1143 12.1892 0 39.1398 11.7186 0 39.5572 12.0946 0 39.1653 11.2479 0 39.5827 11.624 0 39.1398 11.7186 0 39.5572 12.0946 0 39.1398 11.7186 0 39.5827 11.624 0 38.2286 12.3785 0 38.2541 11.9078 0 38.6715 12.2839 0 38.2797 11.4372 0 38.697 11.8132 0 38.2541 11.9078 0 39.1143 12.1892 0 38.6715 12.2839 0 38.697 11.8132 0 38.2541 11.9078 0 38.697 11.8132 0 38.6715 12.2839 0 38.3307 10.4958 0 38.748 10.8719 0 38.3052 10.9665 0 39.1653 11.2479 0 38.7225 11.3425 0 38.748 10.8719 0 38.2797 11.4372 0 38.3052 10.9665 0 38.7225 11.3425 0 38.748 10.8719 0 38.7225 11.3425 0 38.3052 10.9665 0 39.1143 12.1892 0 38.697 11.8132 0 39.1398 11.7186 0 38.2797 11.4372 0 38.7225 11.3425 0 38.697 11.8132 0 39.1653 11.2479 0 39.1398 11.7186 0 38.7225 11.3425 0 38.697 11.8132 0 38.7225 11.3425 0 39.1398 11.7186 0 36.4572 12.757 0 36.4827 12.2863 0 36.9001 12.6623 0 36.5083 11.8156 0 36.9256 12.1917 0 36.4827 12.2863 0 37.3429 12.5677 0 36.9001 12.6623 0 36.9256 12.1917 0 36.4827 12.2863 0 36.9256 12.1917 0 36.9001 12.6623 0 36.5593 10.8743 0 36.9766 11.2504 0 36.5338 11.345 0 37.394 11.6264 0 36.9511 11.721 0 36.9766 11.2504 0 36.5083 11.8156 0 36.5338 11.345 0 36.9511 11.721 0 36.9766 11.2504 0 36.9511 11.721 0 36.5338 11.345 0 38.2286 12.3785 0 37.7858 12.4731 0 37.8113 12.0024 0 37.3429 12.5677 0 37.3684 12.0971 0 37.7858 12.4731 0 37.394 11.6264 0 37.8113 12.0024 0 37.3684 12.0971 0 37.7858 12.4731 0 37.3684 12.0971 0 37.8113 12.0024 0 36.5083 11.8156 0 36.9511 11.721 0 36.9256 12.1917 0 37.394 11.6264 0 37.3684 12.0971 0 36.9511 11.721 0 37.3429 12.5677 0 36.9256 12.1917 0 37.3684 12.0971 0 36.9511 11.721 0 37.3684 12.0971 0 36.9256 12.1917 0 36.6614 8.99168 0 37.0787 9.36772 0 36.6359 9.46234 0 37.496 9.74376 0 37.0532 9.83838 0 37.0787 9.36772 0 36.6103 9.933 0 36.6359 9.46234 0 37.0532 9.83838 0 37.0787 9.36772 0 37.0532 9.83838 0 36.6359 9.46234 0 38.3307 10.4958 0 37.8878 10.5905 0 37.9134 10.1198 0 37.445 10.6851 0 37.4705 10.2144 0 37.8878 10.5905 0 37.496 9.74376 0 37.9134 10.1198 0 37.4705 10.2144 0 37.8878 10.5905 0 37.4705 10.2144 0 37.9134 10.1198 0 36.5593 10.8743 0 36.5848 10.4037 0 37.0022 10.7797 0 36.6103 9.933 0 37.0277 10.309 0 36.5848 10.4037 0 37.445 10.6851 0 37.0022 10.7797 0 37.0277 10.309 0 36.5848 10.4037 0 37.0277 10.309 0 37.0022 10.7797 0 37.496 9.74376 0 37.4705 10.2144 0 37.0532 9.83838 0 37.445 10.6851 0 37.0277 10.309 0 37.4705 10.2144 0 36.6103 9.933 0 37.0532 9.83838 0 37.0277 10.309 0 37.4705 10.2144 0 37.0277 10.309 0 37.0532 9.83838 0 38.2286 12.3785 0 37.8113 12.0024 0 38.2541 11.9078 0 37.394 11.6264 0 37.8368 11.5318 0 37.8113 12.0024 0 38.2797 11.4372 0 38.2541 11.9078 0 37.8368 11.5318 0 37.8113 12.0024 0 37.8368 11.5318 0 38.2541 11.9078 0 36.5593 10.8743 0 37.0022 10.7797 0 36.9766 11.2504 0 37.445 10.6851 0 37.4195 11.1557 0 37.0022 10.7797 0 37.394 11.6264 0 36.9766 11.2504 0 37.4195 11.1557 0 37.0022 10.7797 0 37.4195 11.1557 0 36.9766 11.2504 0 38.3307 10.4958 0 38.3052 10.9665 0 37.8878 10.5905 0 38.2797 11.4372 0 37.8623 11.0611 0 38.3052 10.9665 0 37.445 10.6851 0 37.8878 10.5905 0 37.8623 11.0611 0 38.3052 10.9665 0 37.8623 11.0611 0 37.8878 10.5905 0 37.394 11.6264 0 37.4195 11.1557 0 3
[...]
            <PointData>
                <DataArray Name="p" type="Float64" format="ascii">-0.000367946 -0.00076403 0.00766403 -0.00115817 0.00704692 -0.00076403 0.0156274 0.00766403 0.00704692 -0.00076403 0.00704692 0.00766403 -0.00147873 0.00619178 -0.0014314 0.0140954 0.00652805 0.00619178 -0.00115817 -0.0014314 0.00652805 0.00619178 0.00652805 -0.0014314 0.0311945 0.0234732 0.0223884 0.0156274 0.0147785 0.0234732 0.0140954 0.0223884 0.0147785 0.0234732 0.0147785 0.0223884 -0.00115817 0.00652805 0.00704692 0.0140954 0.0147785 0.00652805 0.0156274 0.00704692 0.0147785 0.00652805 0.0147785 0.00704692 -0.000807828 0.00605078 -0.000564011 0.0130166 0.00620028 0.00605078 -0.000958796 -0.000564011 0.00620028 0.00605078 0.00620028 -0.000564011 0.0273919 0.0204541 0.0201168 0.0133737 0.0132307 0.0204541 0.0130166 0.0201168 0.0132307 0.0204541 0.0132307 0.0201168 -0.00147873 -0.00129504 0.00608031 -0.000958796 0.00613761 -0.00129504 0.0133737 0.00608031 0.00613761 -0.00129504 0.00613761 0.00608031 0.0130166 0.0132307 0.00620028 0.0133737 0.00613761 0.0132307 -0.000958796 0.00620028 0.00613761 0.0132307 0.00613761 0.00620028 0.0606836 0.0534857 0.0514738 0.0462108 0.0443956 0.0534857 0.0429409 0.0514738 0.0443956 0.0534857 0.0443956 0.0514738 0.0311945 0.0298633 0.0387625 0.0287873 0.0371979 0.0298633 0.0462108 0.0387625 0.0371979 0.0298633 0.0371979 0.0387625 0.0273919 0.0349443 0.0279758 0.0429409 0.0359095 0.0349443 0.0287873 0.0279758 0.0359095 0.0349443 0.0359095 0.0279758 0.0462108 0.0371979 0.0443956 0.0287873 0.0359095 0.0371979 0.0429409 0.0443956 0.0359095 0.0371979 0.0359095 0.0443956 -0.00147873 0.00608031 0.00619178 0.0133737 0.0136289 0.00608031 0.0140954 0.00619178 0.0136289 0.00608031 0.0136289 0.00619178 0.0273919 0.0279758 0.0204541 0.0287873 0.0208775 0.0279758 0.0133737 0.0204541 0.0208775 0.0279758 0.0208775 0.0204541 0.0311945 0.0223884 0.0298633 0.0140954 0.0215105 0.0223884 0.0287873 0.0298633 0.0215105 0.0223884 0.0215105 0.0298633 0.0133737 0.0208775 0.0136289 0.0287873 0.0215105 0.0208775 0.0140954 0.0136289 0.0215105 0.0208775 0.0215105 0.0136289 0.0029619 0.00269198 0.0122083 0.00200049 0.0118917 0.00269198 0.0214185 0.0122083 0.0118917 0.00269198 0.0118917 0.0122083 0.000610864 0.010402 0.00121433 0.0202655 0.0112228 0.010402 0.00200049 0.00121433 0.0112228 0.010402 0.0112228 0.00121433 0.0396259 0.0305681 0.0300389 0.0214185 0.021015 0.0305681 0.0202655 0.0300389 0.021015 0.0305681 0.021015 0.0300389 0.00200049 0.0112228 0.0118917 0.0202655 0.021015 0.0112228 0.0214185 0.0118917 0.021015 0.0112228 0.021015 0.0118917 -0.000367946 0.00776856 -8.03914e-05 0.0164018 0.00834979 0.00776856 9.98639e-05 -8.03914e-05 0.00834979 0.00776856 0.00834979 -8.03914e-05 0.0350329 0.0267696 0.0255086 0.0183168 0.0173419 0.0267696 0.0164018 0.0255086 0.0173419 0.0267696 0.0173419 0.0255086 0.000610864 0.000275449 0.00961377 9.98639e-05 0.00894148 0.000275449 0.0183168 0.00961377 0.00894148 0.000275449 0.00894148 0.00961377 0.0164018 0.0173419 0.00834979 0.0183168 0.00894148 0.0173419 9.98639e-05 0.00834979 0.00894148 0.0173419 0.00894148 0.00834979 0.0750639 0.0662913 0.064978 0.0575028 0.0564219 0.0662913 0.054891 0.064978 0.0564219 0.0662913 0.0564219 0.064978 0.0396259 0.0389447 0.0486076 0.0378675 0.0477323 0.0389447 0.0575028 0.0486076 0.0477323 0.0389447 0.0477323 0.0486076 0.0350329 0.0448505 0.0365229 0.054891 0.0464323 0.0448505 0.0378675 0.0365229 0.0464323 0.0448505 0.0464323 0.0365229 0.0575028 0.0477323 0.0564219 0.0378675 0.0464323 0.0477323 0.054891 0.0564219 0.0464323 0.0477323 0.0464323 0.0564219 0.000610864 0.00961377 0.010402 0.0183168 0.019319 0.00961377 0.0202655 0.010402 0.019319 0.00961377 0.019319 0.010402 0.0350329 0.0365229 0.0267696 0.0378675 0.0280095 0.0365229 0.0183168 0.0267696 0.0280095 0.0365229 0.0280095 0.0267696 0.0396259 0.0300389 0.0389447 0.0202655 0.0291409 0.0300389 0.0378675 0.0389447 0.0291409 0.0300389 0.0291409 0.0389447 0.0183168 0.0280095 0.019319 0.0378675 0.0291409 0.0280095 0.0202655 0.019319 0.0291409 0.0280095 0.0291409 0.019319 -0.000367946 0.00766403 0.00776856 0.0156274 0.0160187 0.00766403 0.0164018 0.00776856 0.0160187 0.00766403 0.0160187 0.00776856 0.0311945 0.0321244 0.0234732 0.0331058 0.0241398 0.0321244 0.0156274 0.0234732 0.0241398 0.0321244 0.0241398 0.0234732 0.0350329 0.0255086 0.0340862 0.0164018 0.0248272 0.0255086 0.0331058 0.0340862 0.0248272 0.0255086 0.0248272 0.0340862 0.0156274 0.0241398 0.0160187 0.0331058 0.0248272 0.0241398 0.0164018 0.0160187 0.0248272 0.0241398 0.0248272 0.0160187 0.0606836 0.0626278 0.0534857 0.0647419 0.0552129 0.0626278 0.0462108 0.0534857 0.0552129 0.0626278 0.0552129 0.0534857 0.0689793 0.0588879 0.06688 0.0492077 0.057033 0.0588879 0.0647419 0.06688 0.057033 0.0588879 0.057033 0.06688 0.0311945 0.0387625 0.0399637 0.0462108 0.04766 0.0387625 0.0492077 0.0399637 0.04766 0.0387625 0.04766 0.0399637 0.0647419 0.057033 0.0552129 0.0492077 0.04766 0.057033 0.0462108 0.0552129 0.04766 0.057033 0.04766 0.0552129 0.0750639 0.064978 0.0741244 0.054891 0.0638218 0.064978 0.0727038 0.0741244 0.0638218 0.064978 0.0638218 0.0741244 0.0350329 0.0437181 0.0448505 0.0522787 0.0536812 0.0437181 0.054891 0.0448505 0.0536812 0.0437181 0.0536812 0.0448505 0.0689793 0.0709552 0.0606822 0.0727038 0.0623588 0.0709552 0.0522787 0.0606822 0.0623588 0.0709552 0.0623588 0.0606822 0.054891 0.0536812 0.0638218 0.0522787 0.0623588 0.0536812 0.0727038 0.0638218 0.0623588 0.0536812 0.0623588 0.0638218 0.0311945 0.0399637 0.0321244 0.0492077 0.0412238 0.0399637 0.0331058 0.0321244 0.0412238 0.0399637 0.0412238 0.0321244 0.0689793 0.0606822 0.0588879 0.0522787 0.0507652 0.0606822 0.0492077 0.0588879 0.0507652 0.0606822 0.0507652 0.0588879 0.0350329 0.0340862 0.0437181 0.0331058 0.0424947 0.0340862 0.0522787 0.0437181 0.0424947 0.0340862 0.0424947 0.0437181 0.0492077 0.0507652 0.0412238 0.0522787 0.0424947 0.0507652 0.0331058 0.0412238 0.0424947 0.0507652 0.0424947 0.0412238 0.0606836 0.0687292 0.0682669 0.0766815 0.0764641 0.0687292 0.0762375 0.0682669 0.0764641 0.0687292 0.0764641 0.0682669 0.0922792 0.0925755 0.0845335 0.09289 0.0845713 0.0925755 0.0766815 0.0845335 0.0845713 0.0925755 0.0845713 0.0845335 0.0932864 0.0845863 0.0931486 0.0762375 0.0846085 0.0845863 0.09289 0.0931486 0.0846085 0.0845863 0.0846085 0.0931486 0.0766815 0.0845713 0.0764641 0.09289 0.0846085 0.0845713 0.0762375 0.0764641 0.0846085 0.0845713 0.0846085 0.0764641 0.12204 0.123465 0.114806 0.12499 0.115942 0.123465 0.107422 0.114806 0.115942 0.123465 0.115942 0.114806 0.127902 0.118312 0.126497 0.10916 0.117137 0.118312 0.12499 0.126497 0.117137 0.118312 0.117137 0.126497 0.0922792 0.0999119 0.100481 0.107422 0.108264 0.0999119 0.10916 0.100481 0.108264 0.0999119 0.108264 0.100481 0.12499 0.117137 0.115942 0.10916 0.108264 0.117137 0.107422 0.115942 0.108264 0.117137 0.108264 0.115942 0.131155 0.121312 0.130803 0.111666 0.12093 0.121312 0.130112 0.130803 0.12093 0.121312 0.12093 0.130803 0.0932864 0.102064 0.102328 0.110761 0.111326 0.102064 0.111666 0.102328 0.111326 0.102064 0.111326 0.102328 0.127902 0.129123 0.119375 0.130112 0.120266 0.129123 0.110761 0.119375 0.120266 0.129123 0.120266 0.119375 0.111666 0.111326 0.12093 0.110761 0.120266 0.111326 0.130112 0.12093 0.120266 0.111326 0.120266 0.12093 0.0922792 0.100481 0.0925755 0.10916 0.101077 0.100481 0.09289 0.0925755 0.101077 0.100481 0.101077 0.0925755 0.127902 0.119375 0.118312 0.110761 0.110017 0.119375 0.10916 0.118312 0.110017 0.119375 0.110017 0.118312 0.0932864 0.0931486 0.102064 0.09289 0.101629 0.0931486 0.110761 0.102064 0.101629 0.0931486 0.101629 0.102064 0.10916 0.110017 0.101077 0.110761 0.101629 0.110017 0.09289 0.101077 0.101629 0.110017 0.101629 0.101077 0.0750639 0.0741244 0.0825386 0.0727038 0.0813215 0.0741244 0.0899312 0.0825386 0.0813215 0.0741244 0.0813215 0.0825386 0.0689793 0.077575 0.0709552 0.0863618 0.0796055 0.077575 0.0727038 0.0709552 0.0796055 0.077575 0.0796055 0.0709552 0.104312 0.0971746 0.0953074 0.0899312 0.0883994 0.0971746 0.0863618 0.0953074 0.0883994 0.0971746 0.0883994 0.0953074 0.0727038 0.0796055 0.0813215 0.0863618 0.0883994 0.0796055 0.0899312 0.0813215 0.0883994 0.0796055 0.0883994 0.0813215 0.0606836 0.0682669 0.0626278 0.0762375 0.0705633 0.0682669 0.0647419 0.0626278 0.0705633 0.0682669 0.0705633 0.0626278 0.0932864 0.0874798 0.0845863 0.0814899 0.0788558 0.0874798 0.0762375 0.0845863 0.0788558 0.0874798 0.0788558 0.0845863 0.0689793 0.06688 0.0753203 0.0647419 0.0729633 0.06688 0.0814899 0.0753203 0.0729633 0.06688 0.0729633 0.0753203 0.0762375 0.0788558 0.0705633 0.0814899 0.0729633 0.0788558 0.0647419 0.0705633 0.0729633 0.0788558 0.0729633 0.0705633 0.131155 0.124718 0.121312 0.118086 0.115096 0.124718 0.111666 0.121312 0.115096 0.124718 0.115096 0.121312 0.104312 0.102084 0.111262 0.09937 0.108666 0.102084 0.118086 0.111262 0.108666 0.102084 0.108666 0.111262 0.0932864 0.102328 0.0964143 0.111666 0.105625 0.102328 0.09937 0.0964143 0.105625 0.102328 0.105625 0.0964143 0.118086 0.108666 0.115096 0.09937 0.105625 0.108666 0.111666 0.115096 0.105625 0.108666 0.105625 0.115096 0.0689793 0.0753203 0.077575 0.0814899 0.0840287 0.0753203 0.0863618 0.077575 0.0840287 0.0753203 0.0840287 0.077575 0.0932864 0.0964143 0.0874798 0.09937 0.0903096 0.0964143 0.0814899 0.0874798 0.0903096 0.0964143 0.0903096 0.0874798 0.104312 0.0953074 0.102084 0.0863618 0.0929498 0.0953074 0.09937 0.102084 0.0929498 0.0953074 0.0929498 0.102084 0.0814899 0.0903096 0.0840287 0.09937 0.0929498 0.0903096 0.0863618 0.0840287 0.0929498 0.0903096 0.0929498 0.0840287 0.208906 0.206896 0.217356 0.204004 0.214769 0.206896 0.225651 0.217356 0.214769 0.206896 0.214769 0.217356 0.196479 0.207234 0.200471 0.218334 0.211304 0.207234 0.204004 0.200471 0.211304 0.207234 0.211304 0.200471 0.241329 0.233602 0.229721 0.225651 0.222418 0.233602 0.218334 0.229721 0.222418 0.233602 0.222418 0.229721 0.204004 0.211304 0.214769 0.218334 0.222418 0.211304 0.225651 0.214769 0.222418 0.211304 0.222418 0.214769 0.17874 0.188099 0.183065 0.198081 0.192985 0.188099 0.187635 0.183065 0.192985 0.188099 0.192985 0.183065 0.219483 0.214269 0.208581 0.208668 0.203405 0.214269 0.198081 0.208581 0.203405 0.214269 0.203405 0.208581 0.196479 0.192149 0.202725 0.187635 0.197938 0.192149 0.208668 0.202725 0.197938 0.192149 0.197938 0.202725 0.198081 0.203405 0.192985 0.208668 0.197938 0.203405 0.187635 0.192985 0.197938 0.203405 0.197938 0.192985 0.266894 0.26148 0.254576 0.255339 0.249154 0.26148 0.242447 0.254576 0.249154 0.26148 0.249154 0.254576 0.241329 0.236686 0.248506 0.231313 0.243192 0.236686 0.255339 0.248506 0.243192 0.236686 0.243192 0.248506 0.219483 0.2308 0.225509 0.242447 0.237167 0.2308 0.231313 0.225509 0.237167 0.2308 0.237167 0.225509 0.255339 0.243192 0.249154 0.231313 0.237167 0.243192 0.242447 0.249154 0.237167 0.243192 0.237167 0.249154 0.196479 0.202725 0.207234 0.208668 0.213685 0.202725 0.218334 0.207234 0.213685 0.202725 0.213685 0.207234 0.219483 0.225509 0.214269 0.231313 0.219811 0.225509 0.208668 0.214269 0.219811 0.225509 0.219811 0.214269 0.241329 0.229721 0.236686 0.218334 0.225019 0.229721 0.231313 0.236686 0.225019 0.229721 0.225019 0.236686 0.208668 0.219811 0.213685 0.231313 0.225019 0.219811 0.218334 0.213685 0.225019 0.219811 0.225019 0.213685 0.286261 0.272176 0.283644 0.257312 0.26834 0.272176 0.277874 0.283644 0.26834 0.272176 0.26834 0.283644 0.226704 0.237041 0.242109 0.246211 0.252879 0.237041 0.257312 0.242109 0.252879 0.237041 0.252879 0.242109 0.260118 0.269952 0.253946 0.277874 0.262186 0.269952 0.246211 0.253946 0.262186 0.269952 0.262186 0.253946 0.257312 0.252879 0.26834 0.246211 0.262186 0.252879 0.277874 0.26834 0.262186 0.252879 0.262186 0.26834 0.165807 0.17465 0.180808 0.182756 0.189996 0.17465 0.195977 0.180808 0.189996 0.17465 0.189996 0.180808 0.196351 0.205807 0.190029 0.21419 0.198372 0.205807 0.182756 0.190029 0.198372 0.205807 0.198372 0.190029 0.226704 0.211306 0.221278 0.195977 0.205535 0.211306 0.21419 0.221278 0.205535 0.211306 0.205535 0.221278 0.182756 0.198372 0.189996 0.21419 0.205535 0.198372 0.195977 0.189996 0.205535 0.198372 0.205535 0.189996 0.208906 0.222805 0.207928 0.236266 0.220913 0.222805 0.205471 0.207928 0.220913 0.222805 0.220913 0.207928 0.260118 0.244193 0.248827 0.228127 0.233094 0.244193 0.236266 0.248827 0.233094 0.244193 0.233094 0.248827 0.196351 0.201588 0.212185 0.205471 0.217272 0.201588 0.228127 0.212185 0.217272 0.201588 0.217272 0.212185 0.236266 0.233094 0.220913 0.228127 0.217272 0.233094 0.205471 0.220913 0.217272 0.233094 0.217272 0.220913 0.226704 0.221278 0.237041 0.21419 0.23018 0.221278 0.246211 0.237041 0.23018 0.221278 0.23018 0.237041 0.196351 0.212185 0.205807 0.228127 0.221768 0.212185 0.21419 0.205807 0.221768 0.212185 0.221768 0.205807 0.260118 0.253946 0.244193 0.246211 0.237872 0.253946 0.228127 0.244193 0.237872 0.253946 0.237872 0.244193 0.21419 0.221768 0.23018 0.228127 0.237872 0.221768 0.246211 0.23018 0.237872 0.221768 0.237872 0.23018 0.286261 0.283644 0.293463 0.277874 0.288235 0.283644 0.297931 0.293463 0.288235 0.283644 0.288235 0.293463 0.260118 0.270254 0.269952 0.280047 0.280136 0.270254 0.277874 0.269952 0.280136 0.270254 0.280136 0.269952 0.298542 0.299616 0.289505 0.297931 0.290166 0.299616 0.280047 0.289505 0.290166 0.299616 0.290166 0.289505 0.277874 0.280136 0.288235 0.280047 0.290166 0.280136 0.297931 0.288235 0.290166 0.280136 0.290166 0.288235 0.208906 0.217356 0.222805 0.225651 0.231743 0.217356 0.236266 0.222805 0.231743 0.217356 0.231743 0.222805 0.241329 0.248867 0.233602 0.254819 0.24042 0.248867 0.225651 0.233602 0.24042 0.248867 0.24042 0.233602 0.260118 0.248827 0.25863 0.236266 0.245663 0.248827 0.254819 0.25863 0.245663 0.248827 0.245663 0.25863 0.225651 0.24042 0.231743 0.254819 0.245663 0.24042 0.236266 0.231743 0.245663 0.24042 0.245663 0.231743 0.266894 0.277774 0.26148 0.287257 0.27128 0.277774 0.255339 0.26148 0.27128 0.277774 0.27128 0.26148 0.298542 0.286051 0.29444 0.272095 0.27983 0.286051 0.287257 0.29444 0.27983 0.286051 0.27983 0.29444 0.241329 0.248506 0.256807 0.255339 0.264492 0.248506 0.272095 0.256807 0.264492 0.248506 0.264492 0.256807 0.287257 0.27983 0.27128 0.272095 0.264492 0.27983 0.255339 0.27128 0.264492 0.27983 0.264492 0.27128 0.260118 0.25863 0.270254 0.254819 0.268167 0.25863 0.280047 0.270254 0.268167 0.25863 0.268167 0.270254 0.241329 0.256807 0.248867 0.272095 0.263605 0.256807 0.254819 0.248867 0.263605 0.256807 0.263605 0.248867 0.298542 0.289505 0.286051 0.280047 0.277411 0.289505 0.272095 0.286051 0.277411 0.289505 0.277411 0.286051 0.254819 0.263605 0.268167 0.272095 0.277411 0.263605 0.280047 0.268167 0.277411 0.263605 0.277411 0.268167 0.165807 0.155678 0.164876 0.144965 0.153906 0.155678 0.162819 0.164876 0.153906 0.155678 0.153906 0.164876 0.122432 0.130779 0.133859 0.139097 0.142482 0.130779 0.144965 0.133859 0.142482 0.130779 0.142482 0.133859 0.155556 0.15968 0.147292 0.162819 0.151056 0.15968 0.139097 0.147292 0.151056 0.15968 0.151056 0.147292 0.144965 0.142482 0.153906 0.139097 0.151056 0.142482 0.162819 0.153906 0.151056 0.142482 0.151056 0.153906 0.0750639 0.0825386 0.0870352 0.0899312 0.0946969 0.0825386 0.0989627 0.0870352 0.0946969 0.0825386 0.0946969 0.0870352 0.104312 0.109726 0.0971746 0.114617 0.102254 0.109726 0.0899312 0.0971746 0.102254 0.109726 0.102254 0.0971746 0.122432 0.110777 0.118874 0.0989627 0.106819 0.110777 0.114617 0.118874 0.106819 0.110777 0.106819 0.118874 0.0899312 0.102254 0.0946969 0.114617 0.106819 0.102254 0.0989627 0.0946969 0.106819 0.102254 0.106819 0.0946969 0.131155 0.138117 0.124718 0.144637 0.13123 0.138117 0.118086 0.124718 0.13123 0.138117 0.13123 0.124718 0.155556 0.14268 0.150518 0.129898 0.137289 0.14268 0.144637 0.150518 0.137289 0.14268 0.137289 0.150518 0.104312 0.111262 0.117024 0.118086 0.124244 0.111262 0.129898 0.117024 0.124244 0.111262 0.124244 0.117024 0.144637 0.137289 0.13123 0.129898 0.124244 0.137289 0.118086 0.13123 0.124244 0.137289 0.124244 0.13123 0.122432 0.118874 0.130779 0.114617 0.12689 0.118874 0.139097 0.130779 0.12689 0.118874 0.12689 0.130779 0.104312 0.117024 0.109726 0.129898 0.122281 0.117024 0.114617 0.109726 0.122281 0.117024 0.122281 0.109726 0.155556 0.147292 0.14268 0.139097 0.134884 0.147292 0.129898 0.14268 0.134884 0.147292 0.134884 0.14268 0.114617 0.122281 0.12689 0.129898 0.134884 0.122281 0.139097 0.12689 0.134884 0.122281 0.134884 0.12689 0.208906 0.207928 0.198848 0.205471 0.197694 0.207928 0.18893 0.198848 0.197694 0.207928 0.197694 0.198848 0.196351 0.191209 0.201588 0.184773 0.195137 0.191209 0.205471 0.201588 0.195137 0.191209 0.195137 0.201588 0.169278 0.179056 0.177411 0.18893 0.187469 0.179056 0.184773 0.177411 0.187469 0.179056 0.187469 0.177411 0.205471 0.195137 0.197694 0.184773 0.187469 0.195137 0.18893 0.197694 0.187469 0.195137 0.187469 0.197694 0.165807 0.164876 0.17465 0.162819 0.172759 0.164876 0.182756 0.17465 0.172759 0.164876 0.172759 0.17465 0.155556 0.165605 0.15968 0.175752 0.169706 0.165605 0.162819 0.15968 0.169706 0.165605 0.169706 0.15968 0.196351 0.190029 0.186057 0.182756 0.179844 0.190029 0.175752 0.186057 0.179844 0.190029 0.179844 0.186057 0.162819 0.169706 0.172759 0.175752 0.179844 0.169706 0.182756 0.172759 0.179844 0.169706 0.179844 0.172759 0.131155 0.140547 0.138117 0.150019 0.147767 0.140547 0.144637 0.138117 0.147767 0.140547 0.147767 0.138117 0.169278 0.167402 0.159603 0.164477 0.157542 0.167402 0.150019 0.159603 0.157542 0.167402 0.157542 0.159603 0.155556 0.150518 0.160498 0.144637 0.154499 0.150518 0.164477 0.160498 0.154499 0.150518 0.154499 0.160498 0.150019 0.157542 0.147767 0.164477 0.154499 0.157542 0.144637 0.147767 0.154499 0.157542 0.154499 0.147767 0.196351 0.186057 0.191209 0.175752 0.180837 0.186057 0.184773 0.191209 0.180837 0.186057 0.180837 0.191209 0.155556 0.160498 0.165605 0.164477 0.170629 0.160498 0.175752 0.165605 0.170629 0.160498 0.170629 0.165605 0.169278 0.177411 0.167402 0.184773 0.174589 0.177411 0.164477 0.167402 0.174589 0.177411 0.174589 0.167402 0.175752 0.170629 0.180837 0.164477 0.174589 0.170629 0.184773 0.180837 0.174589 0.170629 0.174589 0.180837 </DataArray>